/*--------------------------------*- C++ -*----------------------------------*\
| =========                 |                                                 |
| \\      /  F ield         | OpenFOAM: The Open Source CFD Toolbox           |
|  \\    /   O peration     | Version:  v2012                                 |
|   \\  /    A nd           | Website:  www.openfoam.com                      |
|    \\/     M anipulation  |                                                 |
\*---------------------------------------------------------------------------*/
FoamFile
{
    version     2.0;
    format      ascii;
    class       volSymmTensorField;
    location    "20000";
    object      turbulenceProperties:R;
}
// * * * * * * * * * * * * * * * * * * * * * * * * * * * * * * * * * * * * * //

dimensions      [0 2 -2 0 0 0 0];


internalField   nonuniform List<symmTensor> 
14751
(
(1.67147e-06 2.77553e-08 2.45336e-31 1.67148e-06 -7.14294e-31 1.67147e-06)
(1.6678e-06 2.77028e-08 -9.29571e-32 1.66781e-06 1.22801e-28 1.66781e-06)
(1.66096e-06 2.75594e-08 -3.78645e-31 1.66096e-06 8.41007e-30 1.66096e-06)
(1.65691e-06 2.75127e-08 -1.25589e-30 1.65693e-06 -2.06245e-30 1.65692e-06)
(1.6504e-06 2.73303e-08 -1.03771e-31 1.65042e-06 2.06783e-28 1.65041e-06)
(1.64366e-06 2.7176e-08 3.93681e-31 1.64368e-06 3.97794e-28 1.64367e-06)
(1.63679e-06 2.69845e-08 -1.47841e-31 1.63682e-06 9.9052e-35 1.63681e-06)
(1.6291e-06 2.67653e-08 1.40067e-30 1.62913e-06 -1.9064e-30 1.62911e-06)
(1.62159e-06 2.65428e-08 1.95912e-30 1.62162e-06 -1.7368e-30 1.6216e-06)
(1.6136e-06 2.62926e-08 -1.22141e-30 1.61364e-06 4.24882e-30 1.61362e-06)
(1.60568e-06 2.60356e-08 -1.57906e-30 1.60572e-06 -1.5338e-28 1.6057e-06)
(1.59737e-06 2.5758e-08 1.12775e-30 1.5974e-06 1.53495e-28 1.59739e-06)
(1.58935e-06 2.54836e-08 -7.54053e-31 1.58939e-06 3.81923e-30 1.58937e-06)
(1.58116e-06 2.5195e-08 9.5282e-31 1.58119e-06 -3.70222e-30 1.58117e-06)
(1.5733e-06 2.49111e-08 9.76625e-31 1.57334e-06 2.1519e-31 1.57332e-06)
(1.56535e-06 2.4617e-08 -1.38044e-30 1.56539e-06 -4.12313e-31 1.56537e-06)
(1.55776e-06 2.43318e-08 -4.59709e-32 1.5578e-06 -2.50166e-28 1.55778e-06)
(1.55034e-06 2.40452e-08 -7.35143e-31 1.55038e-06 1.81726e-28 1.55036e-06)
(1.54326e-06 2.37657e-08 6.48062e-31 1.5433e-06 2.13252e-30 1.54328e-06)
(1.53654e-06 2.3492e-08 3.86536e-32 1.53657e-06 1.13091e-28 1.53655e-06)
(1.53026e-06 2.32283e-08 -1.40731e-31 1.5303e-06 1.09762e-28 1.53028e-06)
(1.52463e-06 2.29786e-08 1.49071e-30 1.52466e-06 -1.41671e-30 1.52465e-06)
(1.51977e-06 2.27446e-08 -1.20886e-30 1.5198e-06 -1.54462e-28 1.51979e-06)
(1.51568e-06 2.25264e-08 -1.40683e-31 1.51571e-06 1.36573e-34 1.51569e-06)
(1.51199e-06 2.23188e-08 6.69565e-32 1.51201e-06 -5.09144e-29 1.512e-06)
(1.50857e-06 2.21204e-08 -7.14876e-31 1.5086e-06 5.22464e-29 1.50859e-06)
(1.50546e-06 2.1932e-08 5.80853e-31 1.50549e-06 -1.27479e-30 1.50547e-06)
(1.50262e-06 2.17531e-08 6.74964e-32 1.50264e-06 -5.07546e-29 1.50263e-06)
(1.50009e-06 2.15854e-08 -7.68846e-32 1.50011e-06 5.10139e-29 1.5001e-06)
(1.49784e-06 2.14274e-08 7.43329e-31 1.49786e-06 1.01433e-28 1.49785e-06)
(1.49589e-06 2.12803e-08 -1.24907e-30 1.49591e-06 2.62372e-30 1.4959e-06)
(1.49422e-06 2.11435e-08 4.84362e-31 1.49424e-06 -1.32217e-30 1.49423e-06)
(1.49286e-06 2.10177e-08 6.07429e-32 1.49287e-06 1.0776e-28 1.49287e-06)
(1.49177e-06 2.09024e-08 -5.71127e-32 1.49179e-06 2.78629e-29 1.49178e-06)
(1.49097e-06 2.07976e-08 3.39428e-31 1.49098e-06 -2.86012e-29 1.49097e-06)
(1.49041e-06 2.07027e-08 -2.65192e-31 1.49043e-06 5.86583e-29 1.49042e-06)
(1.49012e-06 2.0618e-08 -7.86542e-32 1.49013e-06 5.95933e-29 1.49013e-06)
(1.49008e-06 2.0543e-08 3.39837e-31 1.49008e-06 -7.87512e-31 1.49008e-06)
(1.49028e-06 2.04781e-08 -2.79552e-31 1.49028e-06 4.80194e-29 1.49028e-06)
(1.49076e-06 2.04237e-08 1.29296e-31 1.49076e-06 -9.48962e-31 1.49076e-06)
(1.49146e-06 2.03785e-08 -1.49878e-31 1.49147e-06 -6.76777e-29 1.49147e-06)
(1.4924e-06 2.03432e-08 1.49273e-31 1.49241e-06 3.44711e-29 1.49241e-06)
(1.49357e-06 2.03174e-08 -1.36079e-31 1.49357e-06 -4.42126e-29 1.49357e-06)
(1.49497e-06 2.03013e-08 6.65878e-32 1.49497e-06 -9.41889e-30 1.49497e-06)
(1.49658e-06 2.02943e-08 -1.16022e-31 1.49658e-06 3.90844e-29 1.49658e-06)
(1.49841e-06 2.02967e-08 5.59173e-33 1.49841e-06 5.43106e-30 1.49841e-06)
(1.50042e-06 2.03081e-08 8.0558e-33 1.50042e-06 -2.09282e-29 1.50042e-06)
(1.50264e-06 2.03284e-08 6.27955e-33 1.50264e-06 1.86011e-29 1.50264e-06)
(1.50505e-06 2.03572e-08 -1.81815e-33 1.50504e-06 -8.89703e-30 1.50505e-06)
(1.50765e-06 2.03952e-08 -7.6485e-33 1.50764e-06 7.07793e-31 1.50765e-06)
(1.51042e-06 2.04418e-08 2.65959e-32 1.51042e-06 -3.06875e-30 1.51042e-06)
(1.51339e-06 2.04971e-08 2.98244e-33 1.51338e-06 3.0472e-30 1.51339e-06)
(1.51652e-06 2.05611e-08 -9.51821e-32 1.51652e-06 -2.45522e-29 1.51652e-06)
(1.51984e-06 2.06337e-08 5.7953e-32 1.51983e-06 2.52798e-29 1.51983e-06)
(1.52332e-06 2.0715e-08 -1.9608e-32 1.52331e-06 -2.50528e-36 1.52331e-06)
(1.52698e-06 2.0805e-08 2.24515e-31 1.52697e-06 1.30194e-29 1.52697e-06)
(1.53079e-06 2.09034e-08 -3.05077e-31 1.53078e-06 -1.22871e-29 1.53079e-06)
(1.53478e-06 2.10106e-08 8.67909e-32 1.53477e-06 5.62711e-29 1.53477e-06)
(1.53893e-06 2.11262e-08 -3.22306e-32 1.53891e-06 5.31487e-33 1.53892e-06)
(1.54323e-06 2.12506e-08 4.72296e-31 1.54322e-06 -1.53834e-30 1.54323e-06)
(1.5477e-06 2.13834e-08 -6.2205e-31 1.54768e-06 3.10984e-30 1.54769e-06)
(1.55231e-06 2.15248e-08 1.49246e-31 1.55229e-06 -1.57145e-30 1.5523e-06)
(1.55707e-06 2.16746e-08 -6.77023e-33 1.55705e-06 1.92205e-28 1.55706e-06)
(1.56198e-06 2.18329e-08 3.26319e-31 1.56196e-06 -6.61125e-29 1.56197e-06)
(1.56704e-06 2.19996e-08 3.5979e-31 1.56702e-06 -3.30887e-32 1.56703e-06)
(1.57225e-06 2.21749e-08 -1.13563e-30 1.57223e-06 2.75536e-28 1.57224e-06)
(1.57762e-06 2.23587e-08 1.81094e-31 1.5776e-06 -3.47179e-30 1.57761e-06)
(1.58315e-06 2.25513e-08 1.03157e-30 1.58313e-06 -7.40332e-29 1.58314e-06)
(1.58891e-06 2.27536e-08 -5.12854e-31 1.58888e-06 2.4517e-30 1.58889e-06)
(1.59492e-06 2.29658e-08 -1.93326e-31 1.59489e-06 7.1453e-29 1.59491e-06)
(1.60127e-06 2.31891e-08 -1.22583e-35 1.60124e-06 -2.91847e-28 1.60125e-06)
(1.60798e-06 2.34229e-08 -3.10343e-33 1.60795e-06 1.48629e-28 1.60797e-06)
(1.61499e-06 2.36662e-08 1.82579e-32 1.61496e-06 -2.98889e-28 1.61497e-06)
(1.62199e-06 2.39137e-08 2.47698e-32 1.62197e-06 3.00656e-28 1.62198e-06)
(1.62894e-06 2.41646e-08 9.57057e-33 1.62891e-06 1.51791e-28 1.62893e-06)
(1.63579e-06 2.44182e-08 3.70548e-31 1.63576e-06 -2.79795e-32 1.63577e-06)
(1.64258e-06 2.46752e-08 -1.87198e-30 1.64255e-06 7.86533e-30 1.64257e-06)
(1.64925e-06 2.49332e-08 1.45586e-30 1.64923e-06 -7.86123e-30 1.64924e-06)
(1.65573e-06 2.51914e-08 -1.48584e-30 1.65571e-06 7.92511e-30 1.65572e-06)
(1.66195e-06 2.54469e-08 1.05831e-30 1.66192e-06 -1.65117e-28 1.66193e-06)
(1.66789e-06 2.57003e-08 4.60703e-31 1.66786e-06 -4.7227e-28 1.66787e-06)
(1.6735e-06 2.59484e-08 5.35793e-32 1.67347e-06 3.14879e-28 1.67349e-06)
(1.67877e-06 2.61922e-08 6.52958e-33 1.67874e-06 -6.30175e-28 1.67875e-06)
(1.68379e-06 2.64325e-08 -1.98022e-33 1.68377e-06 -9.42901e-28 1.68378e-06)
(1.68839e-06 2.66631e-08 -4.15823e-31 1.68836e-06 -5.84456e-34 1.68837e-06)
(1.69249e-06 2.68856e-08 2.41822e-30 1.69246e-06 -6.30728e-28 1.69247e-06)
(1.69618e-06 2.70966e-08 -2.78212e-30 1.69616e-06 9.42297e-28 1.69617e-06)
(1.699e-06 2.72892e-08 -1.24919e-30 1.69898e-06 3.05444e-28 1.69899e-06)
(1.70163e-06 2.74778e-08 1.60983e-30 1.70161e-06 -3.09506e-28 1.70162e-06)
(1.70301e-06 2.76293e-08 4.2101e-31 1.70299e-06 3.01885e-28 1.703e-06)
(1.70399e-06 2.77746e-08 -1.98175e-31 1.70398e-06 -5.97885e-32 1.70399e-06)
(1.70374e-06 2.78765e-08 6.98777e-31 1.70373e-06 4.74245e-31 1.70373e-06)
(1.70261e-06 2.79588e-08 1.00699e-30 1.70259e-06 4.69628e-31 1.7026e-06)
(1.70075e-06 2.80179e-08 -8.39086e-31 1.70074e-06 6.89537e-29 1.70075e-06)
(1.69798e-06 2.80503e-08 9.17727e-31 1.69797e-06 -6.89037e-29 1.69797e-06)
(1.69427e-06 2.80358e-08 -1.5695e-30 1.69427e-06 -8.97975e-31 1.69427e-06)
(1.6883e-06 2.79622e-08 2.26007e-31 1.6883e-06 2.20185e-31 1.6883e-06)
(1.68345e-06 2.79234e-08 4.35621e-32 1.68345e-06 3.04196e-32 1.68345e-06)
(1.67756e-06 2.78289e-08 -3.91568e-32 1.67756e-06 -1.94747e-30 1.67756e-06)
(2.674e-06 1.71876e-07 4.73669e-29 2.67417e-06 4.54554e-30 2.67409e-06)
(2.66783e-06 1.71718e-07 -6.72982e-28 2.66806e-06 -6.98672e-28 2.66793e-06)
(2.65611e-06 1.70926e-07 -1.72274e-29 2.65632e-06 -9.10957e-29 2.65623e-06)
(2.64964e-06 1.70758e-07 8.78646e-29 2.64996e-06 -4.85499e-27 2.6498e-06)
(2.63866e-06 1.69948e-07 -1.11662e-27 2.63902e-06 -1.09869e-27 2.63884e-06)
(2.62733e-06 1.69175e-07 -2.61181e-27 2.62771e-06 -2.09809e-27 2.62752e-06)
(2.61591e-06 1.68327e-07 -1.54087e-28 2.61635e-06 1.05826e-27 2.61614e-06)
(2.60313e-06 1.67322e-07 -3.8749e-30 2.60359e-06 -2.04733e-27 2.60336e-06)
(2.59078e-06 1.66341e-07 -4.69848e-30 2.59127e-06 -2.92946e-27 2.59103e-06)
(2.57762e-06 1.65225e-07 -6.15656e-29 2.57814e-06 -3.81904e-27 2.57789e-06)
(2.56458e-06 1.64091e-07 9.80924e-28 2.56512e-06 -9.65623e-29 2.56486e-06)
(2.55084e-06 1.6284e-07 -8.53701e-28 2.5514e-06 9.65096e-29 2.55113e-06)
(2.53762e-06 1.61617e-07 -6.75947e-29 2.5382e-06 1.61223e-27 2.53792e-06)
(2.52408e-06 1.60313e-07 2.65106e-30 2.52467e-06 -1.60751e-27 2.52439e-06)
(2.51113e-06 1.5904e-07 -5.1007e-30 2.51173e-06 5.86485e-30 2.51144e-06)
(2.49797e-06 1.57706e-07 -9.23633e-29 2.49857e-06 -2.93635e-27 2.49828e-06)
(2.48544e-06 1.56413e-07 2.35503e-27 2.48604e-06 1.25658e-27 2.48574e-06)
(2.47319e-06 1.55113e-07 -1.72482e-27 2.47378e-06 1.46018e-27 2.47349e-06)
(2.46151e-06 1.53846e-07 -3.48751e-29 2.46209e-06 -2.61334e-27 2.4618e-06)
(2.45043e-06 1.52608e-07 -7.88871e-28 2.45099e-06 -2.46584e-27 2.45072e-06)
(2.44014e-06 1.51421e-07 -1.40781e-27 2.44069e-06 -5.50442e-28 2.44042e-06)
(2.43099e-06 1.50314e-07 -1.14082e-28 2.43151e-06 1.22275e-27 2.43126e-06)
(2.42324e-06 1.49304e-07 1.73942e-27 2.42374e-06 1.64969e-27 2.4235e-06)
(2.4169e-06 1.48397e-07 4.39613e-29 2.41738e-06 -7.559e-31 2.41714e-06)
(2.41124e-06 1.47547e-07 4.1597e-28 2.4117e-06 -3.80833e-29 2.41148e-06)
(2.40605e-06 1.46738e-07 -3.72658e-28 2.40648e-06 -1.68007e-27 2.40627e-06)
(2.40136e-06 1.45976e-07 -4.26176e-29 2.40177e-06 -5.60716e-28 2.40157e-06)
(2.39712e-06 1.45257e-07 4.06689e-28 2.39751e-06 -4.00567e-29 2.39731e-06)
(2.39341e-06 1.4459e-07 -1.34575e-27 2.39378e-06 -5.31878e-28 2.39359e-06)
(2.39018e-06 1.43971e-07 -1.04097e-27 2.39052e-06 -4.85457e-28 2.39035e-06)
(2.38743e-06 1.43402e-07 -4.33249e-29 2.38775e-06 -1.18305e-27 2.38759e-06)
(2.38517e-06 1.42883e-07 4.58612e-29 2.38547e-06 7.69205e-30 2.38532e-06)
(2.38343e-06 1.42418e-07 -9.91485e-28 2.38369e-06 -1.72325e-27 2.38356e-06)
(2.38216e-06 1.42005e-07 -2.43288e-28 2.3824e-06 2.39612e-29 2.38228e-06)
(2.38136e-06 1.41642e-07 1.98374e-28 2.38157e-06 -1.95885e-29 2.38147e-06)
(2.38098e-06 1.41328e-07 -4.58481e-28 2.38117e-06 1.02033e-27 2.38108e-06)
(2.38106e-06 1.41064e-07 -5.19177e-28 2.38122e-06 1.05481e-27 2.38114e-06)
(2.38154e-06 1.40847e-07 -5.25569e-30 2.38168e-06 1.7968e-28 2.38161e-06)
(2.38245e-06 1.4068e-07 -4.00888e-28 2.38256e-06 -4.92929e-28 2.38251e-06)
(2.38385e-06 1.40567e-07 -4.97558e-29 2.38394e-06 2.28654e-30 2.38389e-06)
(2.38563e-06 1.40501e-07 5.05437e-28 2.3857e-06 3.15056e-28 2.38567e-06)
(2.38781e-06 1.40483e-07 -1.71337e-28 2.38785e-06 -7.48568e-28 2.38783e-06)
(2.39036e-06 1.40513e-07 2.71051e-28 2.39038e-06 1.59248e-28 2.39037e-06)
(2.39334e-06 1.40594e-07 8.12733e-29 2.39334e-06 -7.05315e-30 2.39334e-06)
(2.39666e-06 1.40719e-07 -2.38634e-28 2.39663e-06 -2.9412e-28 2.39665e-06)
(2.40031e-06 1.40886e-07 -4.83299e-29 2.40026e-06 -1.42568e-30 2.40029e-06)
(2.4043e-06 1.41095e-07 1.73861e-28 2.40422e-06 -5.41084e-28 2.40426e-06)
(2.40863e-06 1.4135e-07 -9.02742e-29 2.40854e-06 1.6767e-28 2.40859e-06)
(2.41328e-06 1.41646e-07 3.72045e-29 2.41316e-06 1.155e-28 2.41322e-06)
(2.41825e-06 1.41987e-07 -2.79996e-31 2.41811e-06 1.67342e-29 2.41818e-06)
(2.42353e-06 1.4237e-07 1.24162e-29 2.42337e-06 -1.82891e-29 2.42345e-06)
(2.42913e-06 1.42794e-07 -2.09056e-29 2.42894e-06 -6.63724e-29 2.42903e-06)
(2.43501e-06 1.43259e-07 1.34133e-28 2.43481e-06 -3.73691e-28 2.43491e-06)
(2.44119e-06 1.43766e-07 -1.14037e-28 2.44096e-06 4.5501e-28 2.44107e-06)
(2.44764e-06 1.44313e-07 -5.13708e-30 2.4474e-06 -1.49398e-28 2.44752e-06)
(2.4544e-06 1.44901e-07 -5.25209e-29 2.45414e-06 1.65869e-28 2.45427e-06)
(2.46142e-06 1.45528e-07 6.52776e-29 2.46113e-06 -3.3578e-28 2.46127e-06)
(2.46871e-06 1.46197e-07 -2.4824e-28 2.46841e-06 3.74526e-28 2.46856e-06)
(2.47627e-06 1.46902e-07 -2.46627e-29 2.47595e-06 -3.22197e-28 2.47611e-06)
(2.48409e-06 1.47647e-07 -1.22899e-32 2.48375e-06 9.38541e-30 2.48392e-06)
(2.49215e-06 1.48429e-07 2.23293e-32 2.4918e-06 3.26891e-28 2.49197e-06)
(2.50047e-06 1.49249e-07 8.25117e-29 2.50009e-06 -1.04194e-27 2.50028e-06)
(2.509e-06 1.50104e-07 -7.45868e-28 2.50861e-06 -1.97215e-27 2.50881e-06)
(2.51778e-06 1.50996e-07 1.11927e-28 2.51738e-06 -7.66258e-28 2.51758e-06)
(2.52678e-06 1.5192e-07 1.43212e-28 2.52636e-06 -7.47721e-28 2.52657e-06)
(2.536e-06 1.52881e-07 -1.06958e-27 2.53557e-06 3.22027e-27 2.53579e-06)
(2.54547e-06 1.53876e-07 -1.45663e-28 2.54503e-06 -7.41595e-28 2.54525e-06)
(2.55519e-06 1.54904e-07 2.01575e-28 2.55474e-06 -3.16068e-27 2.55497e-06)
(2.56527e-06 1.55975e-07 6.21587e-29 2.5648e-06 -2.3097e-29 2.56503e-06)
(2.57575e-06 1.57089e-07 -3.28468e-28 2.57527e-06 -6.38043e-27 2.57551e-06)
(2.58682e-06 1.58252e-07 1.14776e-27 2.58633e-06 1.39749e-27 2.58657e-06)
(2.5985e-06 1.59469e-07 -4.22851e-28 2.598e-06 1.17266e-28 2.59825e-06)
(2.61073e-06 1.60731e-07 9.09994e-28 2.61022e-06 -1.91199e-27 2.61047e-06)
(2.62285e-06 1.61996e-07 -9.55457e-28 2.62235e-06 -4.84e-27 2.6226e-06)
(2.6348e-06 1.63254e-07 -5.58985e-28 2.63429e-06 -8.417e-27 2.63455e-06)
(2.64649e-06 1.64497e-07 -6.34572e-29 2.64599e-06 -1.86363e-30 2.64624e-06)
(2.65799e-06 1.65733e-07 6.28664e-32 2.65749e-06 -4.87567e-29 2.65774e-06)
(2.66918e-06 1.66948e-07 2.73308e-36 2.66868e-06 4.88019e-29 2.66893e-06)
(2.67994e-06 1.68132e-07 -6.33742e-29 2.67945e-06 6.97359e-27 2.67969e-06)
(2.6901e-06 1.69266e-07 2.63265e-28 2.68962e-06 -5.91636e-29 2.68986e-06)
(2.69967e-06 1.70354e-07 2.18662e-27 2.6992e-06 3.23651e-27 2.69943e-06)
(2.70854e-06 1.71383e-07 -9.95148e-28 2.70808e-06 1.9547e-28 2.7083e-06)
(2.71668e-06 1.72351e-07 1.97732e-27 2.71623e-06 1.02281e-26 2.71645e-06)
(2.72431e-06 1.73278e-07 3.71282e-27 2.72388e-06 -4.07794e-27 2.72409e-06)
(2.73104e-06 1.74122e-07 1.35119e-28 2.73063e-06 1.05668e-26 2.73083e-06)
(2.73677e-06 1.74875e-07 2.92158e-27 2.73639e-06 3.21021e-27 2.73658e-06)
(2.74172e-06 1.7556e-07 -3.16919e-27 2.74137e-06 -1.35651e-26 2.74154e-06)
(2.7449e-06 1.76066e-07 -2.0982e-27 2.74457e-06 -3.32305e-27 2.74473e-06)
(2.74777e-06 1.76563e-07 9.83429e-28 2.74748e-06 3.31049e-27 2.74762e-06)
(2.74813e-06 1.76784e-07 -8.70669e-28 2.74787e-06 -1.17213e-26 2.748e-06)
(2.74781e-06 1.76962e-07 -1.15543e-28 2.7476e-06 8.3573e-27 2.7477e-06)
(2.74509e-06 1.76879e-07 -4.13836e-30 2.74492e-06 1.23473e-29 2.745e-06)
(2.74079e-06 1.76656e-07 1.84773e-29 2.74065e-06 -6.44846e-27 2.74072e-06)
(2.73527e-06 1.76318e-07 -2.73415e-28 2.73518e-06 -6.32252e-27 2.73522e-06)
(2.72814e-06 1.75815e-07 2.16501e-28 2.7281e-06 -6.20807e-27 2.72812e-06)
(2.71951e-06 1.75166e-07 3.65784e-29 2.71954e-06 -2.20668e-29 2.71952e-06)
(2.7067e-06 1.7409e-07 -9.72226e-31 2.70675e-06 5.38305e-30 2.70673e-06)
(2.69665e-06 1.73397e-07 -1.34528e-30 2.69675e-06 -1.43043e-27 2.6967e-06)
(2.68517e-06 1.72581e-07 1.02439e-29 2.68531e-06 1.02923e-29 2.68524e-06)
(4.39848e-06 5.30452e-07 -1.54322e-28 4.39966e-06 1.53092e-32 4.3991e-06)
(4.39125e-06 5.30835e-07 2.45643e-27 4.39256e-06 1.19381e-26 4.39187e-06)
(4.37768e-06 5.29713e-07 -1.18146e-27 4.37917e-06 -4.00756e-28 4.37848e-06)
(4.37209e-06 5.30342e-07 2.46877e-26 4.37388e-06 -1.47105e-26 4.37296e-06)
(4.36005e-06 5.29564e-07 4.81119e-27 4.36215e-06 -3.18384e-26 4.36112e-06)
(4.34787e-06 5.28743e-07 8.94373e-27 4.35011e-06 -9.33947e-27 4.349e-06)
(4.33653e-06 5.28101e-07 -5.20241e-27 4.33902e-06 -2.48048e-26 4.33778e-06)
(4.32387e-06 5.27124e-07 9.60566e-27 4.32652e-06 -1.85341e-26 4.32521e-06)
(4.31236e-06 5.26342e-07 1.88448e-26 4.31519e-06 -2.36318e-26 4.31378e-06)
(4.30006e-06 5.25302e-07 2.49574e-26 4.30304e-06 1.58861e-26 4.30156e-06)
(4.28812e-06 5.24273e-07 8.69235e-28 4.29122e-06 -2.28124e-26 4.28968e-06)
(4.27531e-06 5.22955e-07 3.56549e-28 4.27852e-06 2.18696e-26 4.27693e-06)
(4.26332e-06 5.21719e-07 -1.05004e-26 4.2666e-06 -4.38881e-27 4.26497e-06)
(4.25086e-06 5.20265e-07 9.75106e-27 4.2542e-06 -1.42529e-26 4.25254e-06)
(4.2392e-06 5.18876e-07 -3.22036e-28 4.24258e-06 1.35091e-26 4.2409e-06)
(4.22715e-06 5.17288e-07 2.37278e-26 4.23054e-06 1.22842e-26 4.22886e-06)
(4.21593e-06 5.15765e-07 -6.77017e-27 4.2193e-06 6.16397e-27 4.21763e-06)
(4.20504e-06 5.14192e-07 -1.63165e-26 4.20838e-06 -1.18222e-26 4.20672e-06)
(4.19488e-06 5.12658e-07 2.19465e-26 4.19818e-06 6.96619e-27 4.19654e-06)
(4.18554e-06 5.11167e-07 2.32268e-26 4.18875e-06 4.09174e-27 4.18715e-06)
(4.17732e-06 5.09753e-07 3.68077e-27 4.18043e-06 8.18661e-27 4.17889e-06)
(4.17081e-06 5.08513e-07 -1.23581e-26 4.17381e-06 -1.39406e-26 4.17232e-06)
(4.16656e-06 5.07514e-07 -1.24172e-26 4.16942e-06 7.56149e-28 4.168e-06)
(4.16476e-06 5.06845e-07 -4.49558e-28 4.16748e-06 1.28314e-29 4.16613e-06)
(4.16387e-06 5.06286e-07 -4.45854e-28 4.16647e-06 1.48417e-26 4.16518e-06)
(4.16342e-06 5.05774e-07 1.72265e-26 4.16589e-06 3.29666e-27 4.16466e-06)
(4.1635e-06 5.05328e-07 5.05491e-27 4.16583e-06 1.48595e-27 4.16467e-06)
(4.164e-06 5.04924e-07 -1.68077e-30 4.16619e-06 1.21669e-27 4.1651e-06)
(4.16508e-06 5.04599e-07 3.40206e-27 4.16713e-06 1.21482e-26 4.16611e-06)
(4.16663e-06 5.04338e-07 3.37853e-27 4.16853e-06 5.89534e-27 4.16758e-06)
(4.16868e-06 5.04151e-07 1.09326e-26 4.17043e-06 -4.24606e-28 4.16956e-06)
(4.17123e-06 5.04036e-07 -1.74091e-28 4.17283e-06 1.75065e-27 4.17203e-06)
(4.17434e-06 5.04006e-07 1.42049e-26 4.17578e-06 2.1338e-27 4.17506e-06)
(4.17796e-06 5.04056e-07 4.85193e-28 4.17925e-06 -4.35367e-27 4.17861e-06)
(4.18206e-06 5.04188e-07 2.59708e-28 4.18319e-06 1.00511e-26 4.18263e-06)
(4.18659e-06 5.04388e-07 -8.644e-27 4.18757e-06 -1.26184e-26 4.18708e-06)
(4.19157e-06 5.04667e-07 -9.11889e-27 4.1924e-06 -5.02992e-27 4.19199e-06)
(4.19696e-06 5.0502e-07 -1.52283e-27 4.19764e-06 9.28543e-27 4.1973e-06)
(4.20277e-06 5.05447e-07 2.77156e-27 4.20329e-06 -2.39154e-27 4.20303e-06)
(4.20917e-06 5.05989e-07 2.46857e-28 4.20954e-06 1.10847e-29 4.20935e-06)
(4.21595e-06 5.06605e-07 -1.92081e-27 4.21617e-06 6.64936e-28 4.21606e-06)
(4.2231e-06 5.0729e-07 5.24325e-27 4.22318e-06 2.30282e-27 4.22314e-06)
(4.23054e-06 5.08029e-07 -6.38346e-28 4.23046e-06 -3.62983e-27 4.2305e-06)
(4.23826e-06 5.08831e-07 -1.44412e-28 4.23804e-06 2.24345e-28 4.23815e-06)
(4.24629e-06 5.09691e-07 1.40197e-27 4.24593e-06 -1.0697e-27 4.2461e-06)
(4.25465e-06 5.1062e-07 -5.29826e-29 4.25414e-06 -1.24462e-28 4.25439e-06)
(4.2633e-06 5.11612e-07 1.99396e-27 4.26265e-06 2.96709e-28 4.26297e-06)
(4.27228e-06 5.12676e-07 -1.35227e-27 4.2715e-06 3.13475e-28 4.27188e-06)
(4.28151e-06 5.13804e-07 -6.70602e-28 4.2806e-06 -9.77054e-29 4.28105e-06)
(4.29103e-06 5.15e-07 -1.07529e-28 4.28998e-06 -1.04733e-29 4.2905e-06)
(4.3008e-06 5.16248e-07 4.60986e-29 4.29962e-06 -9.04485e-28 4.3002e-06)
(4.3108e-06 5.1756e-07 1.87832e-28 4.3095e-06 9.63648e-29 4.31014e-06)
(4.32101e-06 5.18928e-07 2.11122e-27 4.31958e-06 2.1037e-27 4.32029e-06)
(4.33142e-06 5.20353e-07 -2.2059e-27 4.32987e-06 -2.13504e-27 4.33064e-06)
(4.34202e-06 5.21825e-07 4.86048e-28 4.34035e-06 -5.96873e-29 4.34118e-06)
(4.3528e-06 5.23351e-07 -6.06452e-28 4.35102e-06 -2.72792e-28 4.3519e-06)
(4.36371e-06 5.24924e-07 1.17929e-27 4.36182e-06 7.50795e-27 4.36276e-06)
(4.37479e-06 5.26548e-07 -1.39428e-27 4.37279e-06 -3.14594e-27 4.37378e-06)
(4.38597e-06 5.28209e-07 1.05052e-27 4.38387e-06 1.76384e-27 4.38492e-06)
(4.39726e-06 5.29919e-07 1.80802e-28 4.39506e-06 7.84069e-27 4.39616e-06)
(4.4086e-06 5.31655e-07 -1.43418e-27 4.40632e-06 1.31446e-28 4.40746e-06)
(4.42001e-06 5.33423e-07 2.80153e-27 4.41764e-06 -1.88462e-26 4.41882e-06)
(4.43143e-06 5.35225e-07 8.40326e-27 4.42898e-06 4.98703e-27 4.4302e-06)
(4.44286e-06 5.37047e-07 2.69814e-27 4.44034e-06 1.27399e-27 4.4416e-06)
(4.45429e-06 5.38893e-07 3.34076e-27 4.4517e-06 -4.64555e-27 4.45299e-06)
(4.46569e-06 5.40753e-07 -1.23962e-26 4.46304e-06 -5.33256e-27 4.46436e-06)
(4.4771e-06 5.42633e-07 7.57013e-28 4.47439e-06 -4.74608e-27 4.47574e-06)
(4.48853e-06 5.44527e-07 1.16629e-26 4.48577e-06 9.65264e-27 4.48714e-06)
(4.50014e-06 5.46445e-07 -8.53617e-28 4.49733e-06 -4.64448e-27 4.49873e-06)
(4.51203e-06 5.484e-07 2.36321e-26 4.50917e-06 3.3463e-26 4.5106e-06)
(4.52452e-06 5.50414e-07 -2.12073e-27 4.52162e-06 4.54393e-26 4.52306e-06)
(4.53778e-06 5.52512e-07 -8.60702e-28 4.53485e-06 -3.72152e-26 4.53631e-06)
(4.55178e-06 5.54728e-07 3.70437e-27 4.54884e-06 4.53476e-26 4.55031e-06)
(4.56515e-06 5.56853e-07 1.60285e-26 4.56221e-06 -1.85932e-26 4.56368e-06)
(4.57771e-06 5.58853e-07 3.03001e-26 4.57479e-06 3.63647e-27 4.57625e-06)
(4.58933e-06 5.60702e-07 2.1159e-27 4.58644e-06 -3.99271e-26 4.58789e-06)
(4.60016e-06 5.62437e-07 -0 4.59731e-06 -0 4.59873e-06)
(4.61003e-06 5.64018e-07 1.71469e-27 4.60723e-06 5.62963e-29 4.60863e-06)
(4.61869e-06 5.65411e-07 -2.46535e-26 4.61595e-06 -1.82317e-26 4.61732e-06)
(4.62586e-06 5.66562e-07 -8.77538e-28 4.62321e-06 -2.6977e-26 4.62453e-06)
(4.6316e-06 5.6748e-07 -8.26346e-27 4.62903e-06 1.73378e-27 4.63031e-06)
(4.63573e-06 5.68149e-07 1.66861e-27 4.63327e-06 3.01259e-27 4.6345e-06)
(4.63824e-06 5.68544e-07 -3.44234e-26 4.63588e-06 -2.35291e-26 4.63706e-06)
(4.63973e-06 5.68803e-07 1.68513e-26 4.6375e-06 5.13749e-26 4.63861e-06)
(4.63945e-06 5.68783e-07 -3.45784e-26 4.63736e-06 -2.77137e-26 4.6384e-06)
(4.63719e-06 5.68418e-07 -1.41814e-26 4.63526e-06 3.50206e-26 4.63623e-06)
(4.63354e-06 5.67881e-07 4.34607e-26 4.63178e-06 -1.45054e-26 4.63265e-06)
(4.62638e-06 5.66639e-07 1.25888e-26 4.62479e-06 3.22978e-26 4.62559e-06)
(4.61906e-06 5.65516e-07 -1.27634e-26 4.61768e-06 1.72878e-26 4.61836e-06)
(4.6069e-06 5.63416e-07 4.32035e-26 4.60574e-06 -3.85008e-26 4.60632e-06)
(4.59343e-06 5.61148e-07 -2.86446e-26 4.5925e-06 -2.69041e-26 4.59295e-06)
(4.57612e-06 5.58171e-07 -3.20783e-27 4.57543e-06 9.34508e-27 4.57577e-06)
(4.55662e-06 5.54839e-07 2.43328e-26 4.55616e-06 -1.51986e-26 4.55638e-06)
(4.53578e-06 5.5133e-07 2.56906e-26 4.53557e-06 -2.5326e-26 4.53567e-06)
(4.51306e-06 5.47491e-07 2.69102e-26 4.51313e-06 1.82507e-26 4.5131e-06)
(4.4888e-06 5.43553e-07 1.31957e-27 4.48915e-06 3.47372e-26 4.48895e-06)
(4.45982e-06 5.38662e-07 -2.9744e-28 4.46034e-06 -2.21445e-29 4.4601e-06)
(4.4376e-06 5.35421e-07 6.30788e-27 4.43835e-06 3.89082e-27 4.43797e-06)
(4.41613e-06 5.32541e-07 2.62504e-28 4.41702e-06 4.46358e-29 4.41657e-06)
(6.32504e-06 1.06309e-06 2.18794e-27 6.32936e-06 2.83734e-29 6.32727e-06)
(6.31806e-06 1.06478e-06 -7.16253e-26 6.3224e-06 -2.16538e-26 6.32016e-06)
(6.30508e-06 1.06408e-06 -5.22677e-27 6.31049e-06 -1.11055e-25 6.3079e-06)
(6.30427e-06 1.06707e-06 8.42909e-26 6.31002e-06 9.28104e-26 6.30709e-06)
(6.29541e-06 1.06784e-06 1.47031e-25 6.30221e-06 1.1531e-25 6.29885e-06)
(6.28722e-06 1.06844e-06 3.86233e-28 6.2945e-06 -8.84924e-26 6.29087e-06)
(6.28097e-06 1.06964e-06 1.4177e-25 6.28886e-06 3.69205e-26 6.28492e-06)
(6.27459e-06 1.07054e-06 1.12014e-25 6.28303e-06 1.42332e-25 6.27884e-06)
(6.26996e-06 1.0718e-06 1.58254e-25 6.27885e-06 7.69176e-26 6.27441e-06)
(6.26528e-06 1.07283e-06 -8.8996e-26 6.27464e-06 5.42838e-26 6.26999e-06)
(6.26132e-06 1.07389e-06 1.76839e-25 6.271e-06 7.81507e-26 6.26616e-06)
(6.25707e-06 1.07462e-06 -1.71493e-25 6.26708e-06 -1.60351e-26 6.2621e-06)
(6.25377e-06 1.07541e-06 2.52887e-26 6.26396e-06 6.11422e-26 6.25887e-06)
(6.25037e-06 1.07591e-06 1.12797e-25 6.26075e-06 1.0193e-25 6.25558e-06)
(6.24791e-06 1.07649e-06 -1.04867e-25 6.25834e-06 -8.42702e-26 6.25313e-06)
(6.24529e-06 1.07677e-06 -8.82839e-26 6.25576e-06 4.32786e-26 6.25055e-06)
(6.24368e-06 1.07709e-06 -3.6171e-27 6.25409e-06 -2.81268e-26 6.24889e-06)
(6.24258e-06 1.07732e-06 5.49915e-26 6.25288e-06 -1.2985e-26 6.24774e-06)
(6.24238e-06 1.07757e-06 -5.05504e-26 6.25248e-06 2.37437e-26 6.24744e-06)
(6.24318e-06 1.07784e-06 -5.24201e-26 6.25304e-06 8.08907e-26 6.24812e-06)
(6.24537e-06 1.07814e-06 -1.10389e-25 6.25492e-06 -7.67429e-26 6.25015e-06)
(6.24969e-06 1.07861e-06 1.25049e-25 6.25885e-06 6.9338e-26 6.25428e-06)
(6.25702e-06 1.07933e-06 3.30723e-26 6.26575e-06 -9.64657e-27 6.26138e-06)
(6.26849e-06 1.08051e-06 3.17235e-27 6.27678e-06 -6.76544e-27 6.27262e-06)
(6.28097e-06 1.08183e-06 -1.34153e-25 6.28884e-06 2.34094e-27 6.28489e-06)
(6.29367e-06 1.08315e-06 -3.8502e-26 6.30111e-06 1.61374e-26 6.29738e-06)
(6.30665e-06 1.08451e-06 -1.59573e-26 6.31363e-06 1.18249e-26 6.31012e-06)
(6.31979e-06 1.08587e-06 2.23577e-27 6.3263e-06 1.92619e-26 6.32303e-06)
(6.33325e-06 1.08728e-06 -1.31844e-25 6.33928e-06 -1.82933e-26 6.33625e-06)
(6.34689e-06 1.08872e-06 -8.39334e-26 6.35242e-06 -3.22888e-26 6.34965e-06)
(6.36074e-06 1.09019e-06 3.13371e-27 6.36576e-06 1.04724e-26 6.36324e-06)
(6.37476e-06 1.09171e-06 -1.37272e-26 6.37927e-06 2.71023e-26 6.37701e-06)
(6.38905e-06 1.09329e-06 -4.06939e-26 6.39305e-06 2.07876e-26 6.39104e-06)
(6.40358e-06 1.09495e-06 3.01076e-26 6.40706e-06 -4.18535e-27 6.40531e-06)
(6.41826e-06 1.09665e-06 -8.20355e-26 6.42123e-06 -4.08323e-26 6.41973e-06)
(6.43303e-06 1.09839e-06 8.79194e-26 6.43548e-06 -7.35945e-27 6.43425e-06)
(6.44791e-06 1.10018e-06 2.87505e-26 6.44984e-06 -1.35743e-26 6.44887e-06)
(6.46281e-06 1.10201e-06 -7.23052e-26 6.46424e-06 -2.66403e-26 6.46352e-06)
(6.47768e-06 1.10387e-06 5.46404e-27 6.47861e-06 2.67215e-27 6.47814e-06)
(6.49243e-06 1.10571e-06 -1.98259e-29 6.49285e-06 -4.09993e-27 6.49264e-06)
(6.50711e-06 1.10758e-06 7.93584e-27 6.50705e-06 -1.56448e-27 6.50708e-06)
(6.52181e-06 1.1095e-06 -2.02059e-26 6.52127e-06 5.5358e-27 6.52154e-06)
(6.53643e-06 1.11143e-06 3.20198e-26 6.5354e-06 8.4019e-27 6.53591e-06)
(6.55098e-06 1.11341e-06 9.42631e-28 6.54948e-06 -5.49246e-30 6.55023e-06)
(6.56543e-06 1.11541e-06 -2.33201e-31 6.56347e-06 2.91934e-27 6.56445e-06)
(6.5798e-06 1.11744e-06 -1.41142e-31 6.57738e-06 1.29415e-27 6.5786e-06)
(6.59404e-06 1.11951e-06 2.21378e-27 6.59118e-06 1.50004e-27 6.59262e-06)
(6.6082e-06 1.12162e-06 2.9836e-27 6.60491e-06 -1.84266e-27 6.60656e-06)
(6.62216e-06 1.12374e-06 1.39003e-27 6.61844e-06 -1.17829e-27 6.6203e-06)
(6.63597e-06 1.1259e-06 -1.19347e-28 6.63184e-06 -1.87448e-28 6.63391e-06)
(6.64955e-06 1.12807e-06 5.05659e-27 6.64502e-06 6.46176e-28 6.64729e-06)
(6.66289e-06 1.13026e-06 -3.96242e-28 6.65797e-06 1.38178e-27 6.66044e-06)
(6.67598e-06 1.13247e-06 -6.5127e-27 6.67068e-06 3.4316e-27 6.67334e-06)
(6.68869e-06 1.13467e-06 5.83368e-27 6.68304e-06 -1.83036e-26 6.68587e-06)
(6.70113e-06 1.13687e-06 3.28898e-28 6.69513e-06 2.90632e-27 6.69814e-06)
(6.71323e-06 1.1391e-06 1.42021e-27 6.7069e-06 -4.65868e-27 6.71008e-06)
(6.72499e-06 1.1413e-06 -3.36295e-26 6.71834e-06 -5.92498e-27 6.72168e-06)
(6.73634e-06 1.14351e-06 6.33386e-27 6.72939e-06 -3.45242e-26 6.73288e-06)
(6.74721e-06 1.14571e-06 -5.49299e-27 6.73998e-06 1.0343e-26 6.74361e-06)
(6.75767e-06 1.14788e-06 -3.39123e-26 6.75018e-06 -1.65214e-26 6.75394e-06)
(6.76759e-06 1.15003e-06 -5.03037e-27 6.75986e-06 3.42217e-26 6.76374e-06)
(6.77704e-06 1.15215e-06 7.70144e-26 6.76908e-06 3.59016e-26 6.77308e-06)
(6.78587e-06 1.15423e-06 -2.92812e-26 6.77772e-06 1.30227e-26 6.78181e-06)
(6.79416e-06 1.15628e-06 -2.80925e-27 6.78583e-06 6.17702e-27 6.79001e-06)
(6.80184e-06 1.15827e-06 1.5151e-26 6.79335e-06 5.56628e-27 6.79761e-06)
(6.8089e-06 1.1602e-06 -4.6957e-27 6.80029e-06 -1.7675e-26 6.80461e-06)
(6.81543e-06 1.16206e-06 1.69126e-26 6.8067e-06 5.82178e-27 6.81108e-06)
(6.82134e-06 1.16387e-06 -2.59667e-26 6.81252e-06 1.15524e-26 6.81694e-06)
(6.82691e-06 1.16561e-06 2.06756e-26 6.81802e-06 7.73929e-27 6.82248e-06)
(6.8324e-06 1.16727e-06 -1.1424e-25 6.82345e-06 2.72565e-26 6.82794e-06)
(6.83816e-06 1.16894e-06 -1.53174e-25 6.82917e-06 -2.4683e-26 6.83367e-06)
(6.84491e-06 1.17058e-06 1.2547e-25 6.83589e-06 8.3031e-26 6.8404e-06)
(6.85296e-06 1.17233e-06 -1.37317e-25 6.84397e-06 -5.0902e-26 6.84846e-06)
(6.85978e-06 1.17389e-06 5.17159e-26 6.85089e-06 1.13897e-25 6.85533e-06)
(6.86498e-06 1.17513e-06 -2.76738e-26 6.85622e-06 1.47062e-25 6.8606e-06)
(6.8685e-06 1.176e-06 1.42192e-25 6.8599e-06 4.88074e-26 6.8642e-06)
(6.87047e-06 1.1766e-06 7.113e-27 6.86207e-06 2.68503e-28 6.86626e-06)
(6.87089e-06 1.17692e-06 -3.53615e-27 6.86272e-06 1.88084e-26 6.8668e-06)
(6.86936e-06 1.17686e-06 5.02321e-26 6.86145e-06 -8.08818e-26 6.86539e-06)
(6.86547e-06 1.1763e-06 1.15842e-25 6.85786e-06 7.13701e-26 6.86166e-06)
(6.85937e-06 1.17525e-06 3.98629e-26 6.8521e-06 -3.04544e-26 6.85573e-06)
(6.85086e-06 1.1737e-06 -3.82488e-26 6.84395e-06 1.3391e-27 6.84739e-06)
(6.83965e-06 1.17152e-06 1.26603e-25 6.83315e-06 -5.47955e-26 6.83639e-06)
(6.82631e-06 1.16888e-06 -8.86193e-26 6.82023e-06 -4.81082e-27 6.82326e-06)
(6.81054e-06 1.16574e-06 8.89661e-26 6.80494e-06 -9.05467e-26 6.80772e-06)
(6.79207e-06 1.16197e-06 -6.0232e-26 6.787e-06 8.95267e-26 6.78953e-06)
(6.77168e-06 1.15787e-06 -2.09313e-26 6.76713e-06 1.52437e-25 6.76938e-06)
(6.74703e-06 1.15254e-06 -1.50096e-25 6.7431e-06 -4.18968e-26 6.74507e-06)
(6.72168e-06 1.14735e-06 -4.48754e-26 6.71834e-06 -1.75726e-25 6.71998e-06)
(6.69078e-06 1.14058e-06 1.19482e-25 6.68815e-06 3.53118e-26 6.68947e-06)
(6.65829e-06 1.13355e-06 9.75036e-26 6.65632e-06 -2.1555e-25 6.65728e-06)
(6.62154e-06 1.12539e-06 -3.13478e-26 6.62031e-06 -1.67783e-26 6.62091e-06)
(6.58258e-06 1.11668e-06 6.9334e-26 6.58203e-06 -2.11358e-26 6.58229e-06)
(6.54276e-06 1.10788e-06 1.12307e-25 6.54294e-06 1.25282e-25 6.54283e-06)