/*--------------------------------*- C++ -*----------------------------------*\
| =========                 |                                                 |
| \\      /  F ield         | OpenFOAM: The Open Source CFD Toolbox           |
|  \\    /   O peration     | Version:  v2012                                 |
|   \\  /    A nd           | Website:  www.openfoam.com                      |
|    \\/     M anipulation  |                                                 |
\*---------------------------------------------------------------------------*/
FoamFile
{
    version     2.0;
    format      ascii;
    class       volSymmTensorField;
    location    "20000";
    object      turbulenceProperties:R;
}
// * * * * * * * * * * * * * * * * * * * * * * * * * * * * * * * * * * * * * //

dimensions      [0 2 -2 0 0 0 0];


internalField   nonuniform List<symmTensor> 
14751
(
(1.22786e-06 1.69058e-08 5.76022e-34 1.22786e-06 -3.16112e-39 1.22786e-06)
(1.22255e-06 1.68455e-08 -1.64373e-33 1.22255e-06 1.70014e-28 1.22255e-06)
(1.21914e-06 1.6888e-08 7.01838e-31 1.21914e-06 1.00968e-29 1.21914e-06)
(1.21614e-06 1.68703e-08 -6.71568e-30 1.21614e-06 -1.50151e-29 1.21614e-06)
(1.21107e-06 1.67866e-08 -7.03078e-31 1.21108e-06 -1.69351e-34 1.21107e-06)
(1.20647e-06 1.67231e-08 3.09781e-31 1.20649e-06 -2.94185e-28 1.20648e-06)
(1.20156e-06 1.6627e-08 -3.31141e-30 1.20157e-06 1.51015e-29 1.20157e-06)
(1.19662e-06 1.65259e-08 -2.86571e-31 1.19664e-06 -5.02693e-29 1.19663e-06)
(1.19098e-06 1.63913e-08 2.29995e-33 1.191e-06 3.30822e-29 1.19099e-06)
(1.18487e-06 1.62414e-08 8.10748e-33 1.18489e-06 -2.4643e-28 1.18488e-06)
(1.17846e-06 1.60726e-08 -4.0115e-32 1.17848e-06 -5.72584e-29 1.17847e-06)
(1.17168e-06 1.58886e-08 -4.71441e-31 1.17171e-06 2.82055e-28 1.17169e-06)
(1.16496e-06 1.5697e-08 4.5208e-31 1.16499e-06 -1.30232e-30 1.16497e-06)
(1.15795e-06 1.54922e-08 -8.34236e-31 1.15797e-06 -1.99596e-28 1.15796e-06)
(1.15118e-06 1.52859e-08 6.78378e-31 1.15121e-06 -2.35893e-30 1.15119e-06)
(1.14401e-06 1.50656e-08 1.5506e-32 1.14403e-06 4.44755e-29 1.14402e-06)
(1.13737e-06 1.48555e-08 9.55588e-31 1.13739e-06 -4.66191e-29 1.13738e-06)
(1.13053e-06 1.46344e-08 -1.80914e-30 1.13055e-06 -1.21367e-28 1.13054e-06)
(1.12407e-06 1.44221e-08 1.2949e-31 1.1241e-06 -4.15273e-29 1.12409e-06)
(1.11754e-06 1.42032e-08 4.1048e-31 1.11757e-06 1.50409e-28 1.11755e-06)
(1.1113e-06 1.39935e-08 4.82355e-33 1.11132e-06 -5.76515e-36 1.11131e-06)
(1.1054e-06 1.37893e-08 3.43856e-31 1.10542e-06 -8.26566e-31 1.10541e-06)
(1.09976e-06 1.35907e-08 1.92686e-31 1.09978e-06 5.75228e-32 1.09977e-06)
(1.09443e-06 1.33997e-08 -7.55198e-31 1.09445e-06 1.55392e-30 1.09444e-06)
(1.08942e-06 1.3216e-08 -1.83509e-31 1.08944e-06 -4.7244e-32 1.08943e-06)
(1.08472e-06 1.30403e-08 2.43066e-31 1.08474e-06 -1.26492e-28 1.08473e-06)
(1.08034e-06 1.28729e-08 1.26855e-31 1.08036e-06 6.19576e-29 1.08035e-06)
(1.07628e-06 1.27136e-08 -1.55034e-31 1.0763e-06 -6.09734e-29 1.07629e-06)
(1.07255e-06 1.25631e-08 4.88251e-31 1.07256e-06 -6.05919e-29 1.07255e-06)
(1.06913e-06 1.24209e-08 -4.64342e-31 1.06914e-06 2.59672e-31 1.06913e-06)
(1.06601e-06 1.22872e-08 -1.66716e-31 1.06603e-06 -4.64948e-29 1.06602e-06)
(1.06321e-06 1.21621e-08 -2.85618e-31 1.06322e-06 -1.55588e-29 1.06321e-06)
(1.06071e-06 1.20454e-08 -3.07768e-31 1.06072e-06 -1.12486e-31 1.06071e-06)
(1.0585e-06 1.19371e-08 -1.83357e-31 1.05851e-06 -8.15949e-30 1.05851e-06)
(1.05659e-06 1.18367e-08 2.29178e-31 1.0566e-06 7.70913e-30 1.05659e-06)
(1.05494e-06 1.17446e-08 -1.28902e-30 1.05495e-06 6.71433e-29 1.05495e-06)
(1.0536e-06 1.16618e-08 -1.72386e-31 1.05361e-06 2.60027e-29 1.05361e-06)
(1.05252e-06 1.15862e-08 6.31678e-32 1.05253e-06 -1.80088e-29 1.05253e-06)
(1.05168e-06 1.15178e-08 9.46053e-33 1.05168e-06 -9.05255e-30 1.05168e-06)
(1.05109e-06 1.14566e-08 -4.2383e-32 1.0511e-06 4.83954e-30 1.05109e-06)
(1.05072e-06 1.1402e-08 5.2335e-31 1.05072e-06 2.98238e-29 1.05072e-06)
(1.05059e-06 1.13547e-08 6.52837e-31 1.0506e-06 5.30618e-30 1.05059e-06)
(1.05068e-06 1.13141e-08 -5.19075e-31 1.05069e-06 2.0877e-29 1.05069e-06)
(1.05103e-06 1.12808e-08 -4.5514e-32 1.05103e-06 1.91779e-29 1.05103e-06)
(1.05159e-06 1.12536e-08 -1.41419e-36 1.05159e-06 2.79892e-30 1.05159e-06)
(1.05237e-06 1.12336e-08 1.32095e-32 1.05237e-06 -3.01651e-30 1.05237e-06)
(1.05338e-06 1.12203e-08 -1.53269e-31 1.05338e-06 -4.66783e-30 1.05338e-06)
(1.05461e-06 1.1214e-08 1.39607e-31 1.05461e-06 8.43202e-31 1.05461e-06)
(1.05605e-06 1.1214e-08 -1.35291e-31 1.05605e-06 2.75849e-31 1.05605e-06)
(1.05769e-06 1.12208e-08 1.36969e-31 1.05769e-06 5.38399e-31 1.05769e-06)
(1.05952e-06 1.1234e-08 -1.40409e-31 1.05952e-06 3.44295e-30 1.05952e-06)
(1.06155e-06 1.12534e-08 1.09605e-31 1.06155e-06 -1.76011e-30 1.06155e-06)
(1.06378e-06 1.12791e-08 1.45028e-31 1.06377e-06 1.72269e-29 1.06377e-06)
(1.06619e-06 1.13112e-08 9.9519e-33 1.06618e-06 3.94965e-30 1.06619e-06)
(1.0688e-06 1.13498e-08 1.25803e-31 1.06879e-06 -3.77569e-30 1.06879e-06)
(1.0716e-06 1.13949e-08 8.34153e-33 1.0716e-06 3.28418e-33 1.0716e-06)
(1.07458e-06 1.14463e-08 1.75046e-32 1.07458e-06 -1.02643e-31 1.07458e-06)
(1.07776e-06 1.15043e-08 2.43126e-32 1.07776e-06 1.90273e-36 1.07776e-06)
(1.08112e-06 1.15687e-08 -1.43904e-31 1.08112e-06 -9.41598e-30 1.08112e-06)
(1.08467e-06 1.16395e-08 -6.14262e-32 1.08466e-06 9.26986e-30 1.08467e-06)
(1.08839e-06 1.17164e-08 2.91533e-31 1.08838e-06 7.75531e-29 1.08839e-06)
(1.09229e-06 1.17997e-08 4.16321e-32 1.09228e-06 -2.00892e-29 1.09229e-06)
(1.09635e-06 1.18891e-08 -9.00079e-32 1.09634e-06 2.0051e-29 1.09635e-06)
(1.10059e-06 1.19847e-08 7.11525e-31 1.10057e-06 -1.65841e-28 1.10058e-06)
(1.10497e-06 1.20858e-08 -6.57865e-31 1.10495e-06 -1.70323e-28 1.10496e-06)
(1.1095e-06 1.21931e-08 2.55683e-31 1.10949e-06 2.04107e-29 1.10949e-06)
(1.11417e-06 1.23056e-08 -6.93244e-31 1.11415e-06 9.2525e-31 1.11416e-06)
(1.11897e-06 1.2424e-08 -1.94182e-31 1.11896e-06 -2.23987e-29 1.11897e-06)
(1.12391e-06 1.25484e-08 2.07143e-31 1.12389e-06 4.5461e-29 1.1239e-06)
(1.12894e-06 1.26776e-08 -5.37233e-32 1.12893e-06 -4.53776e-29 1.12893e-06)
(1.13407e-06 1.28117e-08 -2.89256e-31 1.13405e-06 -4.69971e-29 1.13406e-06)
(1.13926e-06 1.29502e-08 2.6887e-31 1.13925e-06 4.7085e-29 1.13925e-06)
(1.14451e-06 1.30933e-08 1.05844e-31 1.1445e-06 1.96818e-28 1.14451e-06)
(1.14981e-06 1.32401e-08 -1.64537e-31 1.14979e-06 3.98819e-28 1.1498e-06)
(1.15511e-06 1.33904e-08 -1.39408e-31 1.1551e-06 -4.54825e-28 1.15511e-06)
(1.16041e-06 1.35441e-08 4.51468e-31 1.1604e-06 -4.11097e-28 1.16041e-06)
(1.1657e-06 1.3701e-08 -2.27684e-31 1.16569e-06 2.47531e-30 1.16569e-06)
(1.17094e-06 1.38602e-08 -2.55924e-31 1.17093e-06 -1.48946e-34 1.17093e-06)
(1.17614e-06 1.4022e-08 6.41936e-31 1.17612e-06 -4.2233e-28 1.17613e-06)
(1.18123e-06 1.4186e-08 -2.08638e-31 1.18121e-06 2.53415e-30 1.18122e-06)
(1.18625e-06 1.43522e-08 -1.15184e-31 1.18623e-06 -7.66971e-35 1.18624e-06)
(1.1911e-06 1.45186e-08 1.44914e-32 1.19108e-06 -5.34177e-28 1.19109e-06)
(1.19588e-06 1.46875e-08 -8.76424e-32 1.19586e-06 1.06783e-28 1.19587e-06)
(1.20044e-06 1.48566e-08 -3.78111e-32 1.20042e-06 -4.29335e-28 1.20043e-06)
(1.20499e-06 1.50296e-08 1.1409e-31 1.20497e-06 4.29536e-28 1.20498e-06)
(1.20921e-06 1.52005e-08 -6.34358e-31 1.20919e-06 3.24553e-28 1.2092e-06)
(1.21337e-06 1.53734e-08 8.68923e-31 1.21335e-06 2.09029e-28 1.21336e-06)
(1.21704e-06 1.55387e-08 -1.39099e-31 1.21702e-06 -1.0424e-28 1.21703e-06)
(1.22069e-06 1.57098e-08 -8.87141e-32 1.22067e-06 -5.28706e-29 1.22068e-06)
(1.22408e-06 1.58747e-08 -1.29491e-31 1.22406e-06 -3.67877e-28 1.22407e-06)
(1.22738e-06 1.60403e-08 1.4977e-32 1.22736e-06 5.13235e-29 1.22737e-06)
(1.23025e-06 1.61953e-08 4.33085e-31 1.23023e-06 -4.64795e-28 1.23024e-06)
(1.23245e-06 1.63401e-08 1.08682e-31 1.23244e-06 -4.0801e-28 1.23245e-06)
(1.23383e-06 1.64639e-08 -4.207e-31 1.23381e-06 -4.03023e-31 1.23382e-06)
(1.23407e-06 1.65733e-08 1.1655e-32 1.23406e-06 -2.87963e-31 1.23407e-06)
(1.23404e-06 1.66681e-08 1.30374e-32 1.23403e-06 6.27435e-30 1.23403e-06)
(1.23196e-06 1.67119e-08 -4.28731e-31 1.23195e-06 -1.9564e-28 1.23195e-06)
(1.23034e-06 1.67725e-08 -5.4366e-32 1.23034e-06 1.39362e-32 1.23034e-06)
(1.22852e-06 1.68414e-08 1.27779e-33 1.22852e-06 6.90157e-31 1.22852e-06)
(1.86256e-06 9.94933e-08 5.22773e-29 1.86261e-06 -3.64344e-34 1.86258e-06)
(1.85357e-06 9.91058e-08 -6.3401e-28 1.8536e-06 -8.94602e-28 1.85359e-06)
(1.84856e-06 9.92258e-08 -9.22484e-29 1.8486e-06 5.86268e-29 1.84858e-06)
(1.84411e-06 9.92318e-08 6.78838e-29 1.84424e-06 -3.67235e-27 1.84417e-06)
(1.83606e-06 9.8859e-08 -8.26546e-29 1.83621e-06 8.22588e-31 1.83614e-06)
(1.829e-06 9.85999e-08 1.26544e-27 1.82919e-06 1.52727e-27 1.82909e-06)
(1.82157e-06 9.82345e-08 3.66642e-29 1.82179e-06 -3.68655e-29 1.82168e-06)
(1.81412e-06 9.78481e-08 1.85618e-28 1.81438e-06 -1.92e-29 1.81425e-06)
(1.80548e-06 9.73039e-08 -1.82254e-28 1.80577e-06 5.73434e-27 1.80563e-06)
(1.79599e-06 9.66633e-08 1.19898e-27 1.79631e-06 1.25816e-27 1.79616e-06)
(1.786e-06 9.59398e-08 3.98502e-28 1.78634e-06 5.16856e-27 1.78618e-06)
(1.77536e-06 9.51295e-08 -1.41478e-27 1.77572e-06 4.43876e-27 1.77554e-06)
(1.76481e-06 9.42936e-08 -1.57325e-28 1.76519e-06 3.53587e-27 1.765e-06)
(1.75372e-06 9.33732e-08 1.17518e-27 1.75411e-06 -3.44298e-27 1.75392e-06)
(1.74302e-06 9.24588e-08 8.05219e-29 1.74343e-06 4.05453e-29 1.74323e-06)
(1.73157e-06 9.1446e-08 -2.29476e-28 1.73197e-06 5.19406e-29 1.73178e-06)
(1.72104e-06 9.04963e-08 1.57257e-28 1.72144e-06 4.32491e-27 1.72124e-06)
(1.71008e-06 8.94762e-08 9.07915e-28 1.71049e-06 1.26145e-27 1.71029e-06)
(1.69977e-06 8.84982e-08 3.0044e-28 1.70017e-06 -4.16643e-29 1.69998e-06)
(1.68929e-06 8.74803e-08 -1.06891e-27 1.68968e-06 -1.16339e-27 1.68949e-06)
(1.67927e-06 8.64997e-08 -5.06278e-29 1.67965e-06 3.94964e-28 1.67946e-06)
(1.66983e-06 8.55528e-08 1.13678e-31 1.67021e-06 -3.90276e-28 1.67002e-06)
(1.6608e-06 8.46303e-08 -5.31903e-31 1.66117e-06 5.24018e-31 1.66099e-06)
(1.6523e-06 8.37424e-08 4.22378e-31 1.65266e-06 -1.89292e-28 1.65248e-06)
(1.64429e-06 8.28897e-08 -4.22859e-29 1.64463e-06 1.79686e-28 1.64446e-06)
(1.6368e-06 8.20746e-08 1.02209e-27 1.63712e-06 6.06513e-28 1.63696e-06)
(1.62982e-06 8.12995e-08 -4.72977e-28 1.63013e-06 -2.95854e-28 1.62998e-06)
(1.62335e-06 8.05624e-08 4.47073e-28 1.62365e-06 -1.0679e-27 1.6235e-06)
(1.61742e-06 7.98687e-08 5.02574e-28 1.6177e-06 4.60047e-28 1.61756e-06)
(1.612e-06 7.92157e-08 6.56028e-30 1.61226e-06 -1.73947e-28 1.61213e-06)
(1.60708e-06 7.86044e-08 3.82863e-28 1.60732e-06 3.03342e-28 1.6072e-06)
(1.60266e-06 7.80357e-08 1.04991e-28 1.60289e-06 6.72722e-28 1.60277e-06)
(1.59873e-06 7.75086e-08 4.30531e-30 1.59895e-06 8.54199e-29 1.59884e-06)
(1.5953e-06 7.70243e-08 4.64347e-29 1.5955e-06 -1.8593e-28 1.5954e-06)
(1.59234e-06 7.65804e-08 -1.71218e-29 1.59252e-06 9.88389e-29 1.59243e-06)
(1.58984e-06 7.61785e-08 -4.42759e-28 1.59e-06 -3.29553e-28 1.58992e-06)
(1.58785e-06 7.5825e-08 -2.13522e-28 1.58799e-06 5.95579e-28 1.58792e-06)
(1.58628e-06 7.55092e-08 1.29959e-28 1.58641e-06 9.7375e-28 1.58635e-06)
(1.5851e-06 7.52293e-08 4.9253e-29 1.58522e-06 -7.77829e-30 1.58516e-06)
(1.58434e-06 7.49861e-08 -6.63565e-30 1.58444e-06 4.13721e-30 1.58439e-06)
(1.58393e-06 7.47767e-08 -1.84018e-28 1.58402e-06 -1.30901e-28 1.58397e-06)
(1.58393e-06 7.46061e-08 -2.74054e-29 1.584e-06 4.08527e-28 1.58397e-06)
(1.58429e-06 7.44697e-08 -1.02726e-28 1.58435e-06 -1.65868e-28 1.58432e-06)
(1.58507e-06 7.43721e-08 -1.06007e-28 1.58512e-06 -5.02016e-28 1.58509e-06)
(1.58619e-06 7.43067e-08 -1.78443e-29 1.58621e-06 3.65365e-30 1.5862e-06)
(1.5877e-06 7.4279e-08 7.36474e-30 1.58771e-06 2.27887e-28 1.58771e-06)
(1.58957e-06 7.42861e-08 -2.78945e-30 1.58957e-06 -6.05482e-30 1.58957e-06)
(1.59183e-06 7.43323e-08 -1.58186e-30 1.59181e-06 2.7589e-30 1.59182e-06)
(1.59439e-06 7.44085e-08 -5.70028e-31 1.59437e-06 2.95521e-30 1.59438e-06)
(1.5973e-06 7.45196e-08 -9.56906e-31 1.59726e-06 -2.15479e-30 1.59728e-06)
(1.60053e-06 7.46632e-08 -1.37717e-29 1.60048e-06 -3.89065e-29 1.60051e-06)
(1.6041e-06 7.48399e-08 9.3214e-30 1.60403e-06 2.07631e-29 1.60407e-06)
(1.60797e-06 7.50473e-08 -5.93304e-29 1.60789e-06 -2.4131e-29 1.60793e-06)
(1.61216e-06 7.52882e-08 -1.75275e-29 1.61207e-06 3.09495e-28 1.61211e-06)
(1.61666e-06 7.55618e-08 7.98589e-30 1.61655e-06 -1.40022e-30 1.61661e-06)
(1.6215e-06 7.58692e-08 1.21284e-30 1.62138e-06 -9.43662e-29 1.62144e-06)
(1.62663e-06 7.6207e-08 2.94042e-33 1.62649e-06 9.47657e-29 1.62656e-06)
(1.63209e-06 7.65792e-08 -3.44014e-30 1.63194e-06 -6.7164e-33 1.63201e-06)
(1.63783e-06 7.6982e-08 2.49747e-29 1.63767e-06 8.00013e-28 1.63775e-06)
(1.64389e-06 7.74161e-08 9.86421e-30 1.64372e-06 -8.2556e-28 1.64381e-06)
(1.65023e-06 7.78794e-08 -2.42154e-28 1.65004e-06 -3.55226e-28 1.65013e-06)
(1.65684e-06 7.83728e-08 2.23311e-29 1.65665e-06 -2.39712e-28 1.65675e-06)
(1.66373e-06 7.88944e-08 -9.25794e-29 1.66352e-06 2.38879e-28 1.66363e-06)
(1.67088e-06 7.94448e-08 4.00494e-28 1.67067e-06 7.94264e-28 1.67077e-06)
(1.67827e-06 8.00191e-08 5.42572e-28 1.67804e-06 7.8298e-28 1.67815e-06)
(1.68589e-06 8.06205e-08 1.481e-29 1.68566e-06 -1.65449e-27 1.68577e-06)
(1.69372e-06 8.12434e-08 -1.24149e-29 1.69348e-06 -1.7319e-27 1.6936e-06)
(1.70175e-06 8.18904e-08 6.13895e-29 1.7015e-06 -5.13833e-28 1.70163e-06)
(1.70999e-06 8.25612e-08 -9.92277e-29 1.70972e-06 4.39018e-29 1.70985e-06)
(1.71836e-06 8.32494e-08 5.88701e-29 1.71809e-06 4.11201e-27 1.71822e-06)
(1.72685e-06 8.39528e-08 1.25556e-28 1.72657e-06 -5.77009e-28 1.72671e-06)
(1.73541e-06 8.46695e-08 -1.00134e-29 1.73513e-06 5.80245e-28 1.73527e-06)
(1.74404e-06 8.53988e-08 -3.93131e-28 1.74375e-06 -9.37528e-28 1.74389e-06)
(1.75268e-06 8.61358e-08 -1.25606e-27 1.75239e-06 -1.35831e-27 1.75253e-06)
(1.76131e-06 8.68774e-08 8.69069e-28 1.76101e-06 1.90481e-27 1.76116e-06)
(1.76986e-06 8.76219e-08 1.11455e-27 1.76956e-06 2.54251e-27 1.76971e-06)
(1.77835e-06 8.83684e-08 1.3859e-28 1.77804e-06 1.13484e-27 1.77819e-06)
(1.78669e-06 8.91102e-08 -1.40939e-28 1.78639e-06 -1.14761e-27 1.78654e-06)
(1.79491e-06 8.98513e-08 1.09128e-27 1.7946e-06 6.70475e-27 1.79475e-06)
(1.80288e-06 9.05815e-08 1.40553e-28 1.80257e-06 -1.28159e-29 1.80272e-06)
(1.81067e-06 9.13091e-08 -1.7539e-28 1.81037e-06 9.40482e-27 1.81052e-06)
(1.8181e-06 9.20135e-08 1.37023e-27 1.81779e-06 -7.41469e-27 1.81795e-06)
(1.82537e-06 9.27193e-08 -1.74836e-28 1.82506e-06 6.17809e-29 1.82521e-06)
(1.8322e-06 9.33997e-08 1.25526e-27 1.83189e-06 2.12998e-27 1.83205e-06)
(1.83896e-06 9.4093e-08 -9.1545e-28 1.83866e-06 -2.13494e-27 1.83881e-06)
(1.84509e-06 9.47408e-08 -1.02563e-27 1.84479e-06 -1.17171e-26 1.84494e-06)
(1.85109e-06 9.53931e-08 -5.81624e-28 1.8508e-06 9.61367e-27 1.85094e-06)
(1.85613e-06 9.59713e-08 1.37044e-28 1.85584e-06 -6.76604e-29 1.85599e-06)
(1.86115e-06 9.65669e-08 3.06173e-29 1.86088e-06 -2.50487e-29 1.86101e-06)
(1.86564e-06 9.71149e-08 1.13708e-27 1.86537e-06 1.58782e-27 1.86551e-06)
(1.87002e-06 9.76568e-08 -1.44913e-28 1.86977e-06 6.05073e-28 1.86989e-06)
(1.87362e-06 9.81339e-08 1.20836e-27 1.87339e-06 2.39905e-27 1.87351e-06)
(1.8761e-06 9.85332e-08 1.39407e-27 1.87589e-06 1.96738e-27 1.87599e-06)
(1.87717e-06 9.88347e-08 1.28688e-28 1.87698e-06 -9.04155e-27 1.87707e-06)
(1.87627e-06 9.89993e-08 2.34833e-30 1.87611e-06 1.71916e-30 1.87619e-06)
(1.87516e-06 9.9168e-08 -7.51978e-29 1.87504e-06 4.35017e-27 1.8751e-06)
(1.87048e-06 9.90449e-08 6.50084e-28 1.87038e-06 8.86869e-28 1.87043e-06)
(1.86707e-06 9.9117e-08 6.09903e-29 1.867e-06 3.22323e-29 1.86703e-06)
(1.86353e-06 9.9189e-08 -2.47682e-30 1.86348e-06 -3.65676e-30 1.86351e-06)
(3.00133e-06 3.07956e-07 -1.64277e-28 3.00162e-06 -2.83722e-27 3.00145e-06)
(2.98663e-06 3.06761e-07 2.09077e-27 2.98697e-06 -3.6159e-27 2.98682e-06)
(2.98158e-06 3.07344e-07 -6.30324e-28 2.98203e-06 -2.00351e-28 2.98181e-06)
(2.97867e-06 3.08272e-07 1.24342e-26 2.97945e-06 1.00872e-26 2.97906e-06)
(2.97032e-06 3.08146e-07 9.32163e-28 2.97125e-06 3.10446e-28 2.97081e-06)
(2.96422e-06 3.08379e-07 -4.15759e-27 2.96531e-06 6.40241e-27 2.96477e-06)
(2.95857e-06 3.08572e-07 -2.74443e-28 2.95986e-06 -3.71938e-26 2.95923e-06)
(2.95301e-06 3.08742e-07 1.06946e-27 2.9545e-06 1.03983e-27 2.95376e-06)
(2.94566e-06 3.08544e-07 -2.40081e-26 2.94733e-06 -5.16762e-26 2.94651e-06)
(2.937e-06 3.08067e-07 -4.17516e-27 2.93882e-06 6.54094e-27 2.93792e-06)
(2.92771e-06 3.07432e-07 -2.34611e-26 2.92967e-06 -1.32063e-26 2.9287e-06)
(2.9175e-06 3.06555e-07 -2.26894e-26 2.91957e-06 -1.98336e-26 2.91855e-06)
(2.90747e-06 3.05646e-07 -2.01943e-26 2.90963e-06 -1.15334e-26 2.90856e-06)
(2.89646e-06 3.04469e-07 1.88752e-26 2.8987e-06 -1.16416e-26 2.8976e-06)
(2.88594e-06 3.03315e-07 6.61197e-28 2.88824e-06 -2.25191e-26 2.8871e-06)
(2.874e-06 3.01813e-07 8.44976e-28 2.87633e-06 2.0316e-26 2.87518e-06)
(2.8634e-06 3.00481e-07 -2.50658e-26 2.86575e-06 -9.49818e-27 2.86458e-06)
(2.8519e-06 2.98898e-07 -7.05215e-27 2.85425e-06 3.16109e-27 2.85309e-06)
(2.8412e-06 2.97394e-07 -5.2597e-28 2.84353e-06 -4.0496e-28 2.84237e-06)
(2.82998e-06 2.95736e-07 6.11563e-27 2.83229e-06 9.04956e-27 2.83115e-06)
(2.81935e-06 2.9412e-07 -2.11317e-27 2.8216e-06 -9.74394e-27 2.82048e-06)
(2.80954e-06 2.9259e-07 2.22339e-27 2.81174e-06 -1.07943e-26 2.81064e-06)
(2.80017e-06 2.91079e-07 4.68214e-29 2.80231e-06 -1.13217e-27 2.80124e-06)
(2.79143e-06 2.89624e-07 1.15526e-27 2.7935e-06 -2.48663e-29 2.79247e-06)
(2.78327e-06 2.88217e-07 -9.18364e-28 2.78526e-06 -8.62328e-27 2.78427e-06)
(2.77572e-06 2.86866e-07 -3.54709e-27 2.77762e-06 4.12531e-27 2.77668e-06)
(2.7688e-06 2.85587e-07 1.3106e-27 2.77061e-06 6.93532e-27 2.76971e-06)
(2.76247e-06 2.84367e-07 8.84958e-27 2.76419e-06 6.23608e-27 2.76333e-06)
(2.75682e-06 2.83226e-07 -2.5374e-27 2.75844e-06 2.58304e-27 2.75763e-06)
(2.75179e-06 2.82159e-07 1.02729e-27 2.75332e-06 -5.05982e-29 2.75255e-06)
(2.74738e-06 2.81169e-07 -1.43704e-27 2.74881e-06 1.16879e-27 2.7481e-06)
(2.74362e-06 2.80261e-07 -5.08088e-27 2.74495e-06 2.73964e-27 2.74429e-06)
(2.74048e-06 2.79432e-07 -7.15568e-28 2.74171e-06 5.90066e-28 2.74109e-06)
(2.73797e-06 2.78689e-07 1.03058e-27 2.7391e-06 -4.24674e-28 2.73853e-06)
(2.73606e-06 2.78032e-07 -5.58518e-28 2.7371e-06 -1.47884e-28 2.73658e-06)
(2.73473e-06 2.77453e-07 1.68588e-27 2.73567e-06 -2.20049e-27 2.7352e-06)
(2.73411e-06 2.76983e-07 -3.79242e-27 2.73495e-06 -2.14704e-27 2.73453e-06)
(2.73402e-06 2.76589e-07 -5.78344e-27 2.73476e-06 -1.65392e-27 2.73439e-06)
(2.73442e-06 2.76267e-07 -2.30501e-28 2.73507e-06 2.0576e-28 2.73475e-06)
(2.73538e-06 2.7603e-07 -3.81997e-29 2.73594e-06 -1.09284e-28 2.73566e-06)
(2.73681e-06 2.75861e-07 6.12367e-28 2.73727e-06 -3.47006e-27 2.73704e-06)
(2.73878e-06 2.75775e-07 -2.16274e-27 2.73915e-06 -1.74328e-27 2.73897e-06)
(2.74123e-06 2.75762e-07 4.13618e-28 2.7415e-06 -1.63025e-28 2.74137e-06)
(2.74427e-06 2.75842e-07 2.45134e-27 2.74445e-06 3.88781e-27 2.74436e-06)
(2.74773e-06 2.75982e-07 1.76479e-28 2.74783e-06 -1.43124e-27 2.74778e-06)
(2.75176e-06 2.76222e-07 -1.07519e-27 2.75176e-06 -8.50674e-28 2.75176e-06)
(2.75624e-06 2.76534e-07 -5.43391e-29 2.75616e-06 1.90749e-27 2.7562e-06)
(2.76114e-06 2.76905e-07 1.10423e-30 2.76096e-06 -1.3339e-28 2.76105e-06)
(2.76642e-06 2.77342e-07 -1.65318e-29 2.76615e-06 -2.64451e-29 2.76629e-06)
(2.77217e-06 2.7786e-07 4.95324e-30 2.77182e-06 7.74043e-30 2.77199e-06)
(2.77833e-06 2.78443e-07 1.15114e-28 2.77789e-06 -6.34538e-28 2.77811e-06)
(2.78493e-06 2.79093e-07 -6.2204e-29 2.78441e-06 1.0179e-28 2.78467e-06)
(2.7919e-06 2.7981e-07 1.33234e-28 2.79129e-06 -4.12547e-28 2.79159e-06)
(2.79928e-06 2.80595e-07 -1.0764e-27 2.79859e-06 -7.66215e-28 2.79893e-06)
(2.80705e-06 2.81442e-07 -9.37143e-29 2.80627e-06 -4.75783e-28 2.80666e-06)
(2.81523e-06 2.82361e-07 2.72581e-28 2.81437e-06 -4.326e-27 2.8148e-06)
(2.82375e-06 2.8334e-07 -2.28929e-28 2.82282e-06 -4.66722e-27 2.82329e-06)
(2.83267e-06 2.84381e-07 1.66977e-28 2.83166e-06 5.79563e-31 2.83217e-06)
(2.84192e-06 2.85479e-07 -2.66018e-27 2.84084e-06 -6.91862e-27 2.84138e-06)
(2.85151e-06 2.86637e-07 2.19054e-27 2.85036e-06 2.66137e-27 2.85093e-06)
(2.86137e-06 2.87838e-07 9.27922e-28 2.86015e-06 -2.5724e-27 2.86076e-06)
(2.87153e-06 2.89089e-07 6.66644e-28 2.87024e-06 3.62541e-28 2.87089e-06)
(2.88192e-06 2.9038e-07 -2.53384e-28 2.88057e-06 -3.59583e-28 2.88125e-06)
(2.89256e-06 2.91714e-07 -1.43918e-27 2.89115e-06 2.59001e-27 2.89185e-06)
(2.90334e-06 2.93068e-07 -2.2082e-27 2.90187e-06 7.08305e-27 2.90261e-06)
(2.91429e-06 2.94456e-07 3.99477e-27 2.91277e-06 -8.44971e-27 2.91353e-06)
(2.92534e-06 2.95858e-07 4.89637e-27 2.92377e-06 5.38402e-27 2.92455e-06)
(2.93644e-06 2.97273e-07 1.45407e-27 2.93483e-06 3.15039e-28 2.93563e-06)
(2.9476e-06 2.98705e-07 1.0417e-27 2.94595e-06 5.4383e-28 2.94677e-06)
(2.95868e-06 3.00129e-07 -1.06694e-26 2.95699e-06 -8.4335e-27 2.95783e-06)
(2.96964e-06 3.01534e-07 2.86359e-28 2.96792e-06 -2.46674e-26 2.96878e-06)
(2.98039e-06 3.02916e-07 -1.22423e-27 2.97865e-06 -4.10509e-27 2.97952e-06)
(2.99092e-06 3.04266e-07 1.25794e-27 2.98915e-06 2.15922e-26 2.99003e-06)
(3.0011e-06 3.05571e-07 3.06649e-27 2.99932e-06 -3.92661e-26 3.00021e-06)
(3.01088e-06 3.06826e-07 -2.56862e-27 3.00909e-06 -1.62535e-26 3.00999e-06)
(3.02018e-06 3.08013e-07 -2.63647e-27 3.01838e-06 3.36665e-26 3.01928e-06)
(3.02899e-06 3.09133e-07 -3.16012e-27 3.02719e-06 3.55257e-28 3.02809e-06)
(3.03717e-06 3.10164e-07 3.53814e-27 3.03537e-06 3.13943e-27 3.03627e-06)
(3.04474e-06 3.11123e-07 -1.46565e-26 3.04295e-06 1.82001e-26 3.04385e-06)
(3.0515e-06 3.11971e-07 4.908e-28 3.04972e-06 -1.22688e-29 3.05061e-06)
(3.05761e-06 3.12744e-07 -2.43035e-26 3.05585e-06 -5.00386e-26 3.05673e-06)
(3.06268e-06 3.13362e-07 1.73394e-26 3.06094e-06 9.40451e-26 3.06181e-06)
(3.06717e-06 3.13936e-07 1.91953e-27 3.06546e-06 -2.22065e-27 3.06631e-06)
(3.07056e-06 3.14347e-07 -4.27728e-27 3.06888e-06 1.68473e-26 3.06972e-06)
(3.07366e-06 3.14771e-07 9.87212e-28 3.07202e-06 -7.33767e-26 3.07284e-06)
(3.07529e-06 3.14969e-07 2.97327e-26 3.07369e-06 1.84717e-26 3.07449e-06)
(3.07652e-06 3.15163e-07 -2.13578e-26 3.07498e-06 -3.02551e-26 3.07574e-06)
(3.07571e-06 3.15037e-07 -1.83149e-27 3.07423e-06 2.19747e-27 3.07497e-06)
(3.07484e-06 3.14942e-07 3.30606e-28 3.07343e-06 1.11376e-27 3.07413e-06)
(3.07295e-06 3.14675e-07 -2.65976e-27 3.07161e-06 -4.69339e-26 3.07228e-06)
(3.07099e-06 3.14417e-07 -1.12153e-27 3.06975e-06 -9.63245e-28 3.07036e-06)
(3.06785e-06 3.1399e-07 -4.41528e-27 3.06673e-06 1.01038e-26 3.06728e-06)
(3.06301e-06 3.13352e-07 -5.86482e-27 3.06203e-06 7.98112e-27 3.06252e-06)
(3.05615e-06 3.12512e-07 2.43241e-26 3.05531e-06 2.52743e-26 3.05572e-06)
(3.0463e-06 3.11223e-07 2.37891e-27 3.04561e-06 -2.53189e-26 3.04596e-06)
(3.03745e-06 3.10326e-07 -1.22222e-26 3.03697e-06 -1.17937e-26 3.0372e-06)
(3.02302e-06 3.08554e-07 -2.58526e-27 3.02267e-06 3.77922e-27 3.02285e-06)
(3.01281e-06 3.0775e-07 -2.48142e-28 3.01258e-06 4.48057e-30 3.01268e-06)
(3.00392e-06 3.07124e-07 2.45056e-30 3.00386e-06 -6.0081e-29 3.00392e-06)
(4.3928e-06 6.4902e-07 9.17304e-27 4.39385e-06 -6.08915e-27 4.39325e-06)
(4.3716e-06 6.46583e-07 3.95388e-28 4.37332e-06 -3.76898e-26 4.3725e-06)
(4.36724e-06 6.48145e-07 1.31842e-27 4.36929e-06 -4.39072e-28 4.36829e-06)
(4.36887e-06 6.51556e-07 -2.76157e-26 4.37164e-06 1.15352e-25 4.37023e-06)
(4.3625e-06 6.52636e-07 -2.4242e-27 4.3659e-06 8.14969e-26 4.36424e-06)
(4.36117e-06 6.54681e-07 -5.19011e-27 4.36504e-06 6.72528e-26 4.36311e-06)
(4.3622e-06 6.57057e-07 1.48158e-25 4.36668e-06 7.06795e-26 4.36447e-06)
(4.36381e-06 6.59486e-07 -2.13108e-27 4.36886e-06 5.85154e-29 4.36635e-06)
(4.36298e-06 6.61248e-07 2.1e-25 4.36859e-06 1.61477e-26 4.36581e-06)
(4.36081e-06 6.62556e-07 1.13503e-27 4.3669e-06 -7.87062e-26 4.36387e-06)
(4.35828e-06 6.63689e-07 5.48376e-26 4.36479e-06 -1.10265e-25 4.36155e-06)
(4.35499e-06 6.6447e-07 5.72662e-26 4.36187e-06 -3.877e-26 4.35846e-06)
(4.35207e-06 6.65222e-07 4.82145e-26 4.35925e-06 2.65553e-26 4.35567e-06)
(4.34806e-06 6.65516e-07 9.66061e-26 4.3555e-06 1.38193e-25 4.3518e-06)
(4.34464e-06 6.65843e-07 1.34945e-25 4.35225e-06 4.93134e-26 4.34845e-06)
(4.33946e-06 6.6553e-07 -1.26839e-25 4.34718e-06 -5.3892e-26 4.34335e-06)
(4.33589e-06 6.65482e-07 5.1708e-26 4.34364e-06 1.46349e-26 4.33977e-06)
(4.33111e-06 6.64969e-07 1.62917e-27 4.33889e-06 -6.48826e-27 4.33502e-06)
(4.32719e-06 6.64555e-07 9.94166e-27 4.3349e-06 -5.76451e-27 4.33105e-06)
(4.32248e-06 6.63809e-07 -8.77314e-26 4.33009e-06 -1.28356e-26 4.3263e-06)
(4.31839e-06 6.6307e-07 6.63462e-26 4.32583e-06 5.61955e-26 4.32212e-06)
(4.31525e-06 6.62459e-07 7.89002e-26 4.32252e-06 -8.18379e-27 4.31889e-06)
(4.3125e-06 6.61822e-07 9.39626e-27 4.31955e-06 3.29735e-26 4.31603e-06)
(4.31033e-06 6.61214e-07 -1.3596e-27 4.31712e-06 3.64054e-26 4.31373e-06)
(4.30866e-06 6.60636e-07 6.84188e-26 4.31519e-06 1.48614e-26 4.31193e-06)
(4.30751e-06 6.60082e-07 -4.64671e-27 4.31375e-06 -6.19055e-27 4.31064e-06)
(4.30691e-06 6.59558e-07 -6.67169e-26 4.31285e-06 -4.76991e-26 4.30988e-06)
(4.30679e-06 6.59085e-07 -3.38124e-26 4.31241e-06 3.21626e-26 4.3096e-06)
(4.30729e-06 6.58678e-07 6.49585e-27 4.31258e-06 -2.29067e-27 4.30993e-06)
(4.30831e-06 6.58311e-07 -1.70977e-28 4.31325e-06 -1.573e-26 4.31078e-06)
(4.30986e-06 6.58017e-07 3.83179e-28 4.31446e-06 -2.27474e-26 4.31216e-06)
(4.31195e-06 6.57792e-07 -2.04866e-26 4.31621e-06 -3.23563e-26 4.31408e-06)
(4.31458e-06 6.57639e-07 -4.05977e-27 4.31849e-06 -6.99478e-28 4.31653e-06)
(4.31774e-06 6.57556e-07 3.48532e-27 4.3213e-06 1.85835e-26 4.31952e-06)
(4.32142e-06 6.57566e-07 -2.83897e-34 4.32464e-06 -1.82808e-26 4.32303e-06)
(4.32558e-06 6.57636e-07 3.23055e-27 4.32845e-06 -1.44977e-26 4.32701e-06)
(4.33036e-06 6.57817e-07 8.01471e-27 4.33289e-06 -6.97333e-27 4.33162e-06)
(4.33557e-06 6.58064e-07 1.2151e-26 4.33776e-06 -9.77763e-27 4.33667e-06)
(4.34117e-06 6.58388e-07 4.36037e-28 4.34303e-06 -2.83198e-30 4.3421e-06)
(4.34726e-06 6.58787e-07 -4.82376e-28 4.34877e-06 -9.40181e-27 4.34801e-06)
(4.35372e-06 6.59253e-07 1.55815e-26 4.35491e-06 5.12567e-27 4.35431e-06)
(4.36065e-06 6.59815e-07 8.11931e-27 4.36151e-06 -4.11209e-27 4.36108e-06)
(4.36793e-06 6.60438e-07 -6.04964e-28 4.36847e-06 -1.02372e-26 4.3682e-06)
(4.37578e-06 6.61174e-07 -2.1931e-26 4.37599e-06 -3.38906e-28 4.37589e-06)
(4.38394e-06 6.61975e-07 6.04199e-27 4.38384e-06 2.48863e-27 4.38389e-06)
(4.39231e-06 6.62816e-07 4.32147e-27 4.39189e-06 4.69988e-27 4.3921e-06)
(4.4009e-06 6.63692e-07 -8.15889e-27 4.40017e-06 -6.28385e-27 4.40053e-06)
(4.40984e-06 6.64646e-07 1.0464e-28 4.4088e-06 -4.71637e-28 4.40932e-06)
(4.41905e-06 6.65645e-07 1.32168e-28 4.4177e-06 2.03118e-27 4.41837e-06)
(4.42861e-06 6.66725e-07 -2.00526e-28 4.42697e-06 4.97076e-29 4.42779e-06)
(4.43845e-06 6.67876e-07 2.19552e-27 4.43652e-06 -7.49437e-28 4.43749e-06)
(4.44859e-06 6.69091e-07 -1.1807e-28 4.44637e-06 -4.79317e-27 4.44748e-06)
(4.45894e-06 6.70344e-07 -1.5352e-28 4.45643e-06 9.01175e-28 4.45769e-06)
(4.46954e-06 6.7166e-07 1.92655e-27 4.46675e-06 -2.98836e-27 4.46815e-06)
(4.48035e-06 6.73029e-07 1.11464e-27 4.47729e-06 1.01823e-27 4.47882e-06)
(4.49141e-06 6.74464e-07 1.43078e-26 4.48809e-06 8.03102e-27 4.48975e-06)
(4.5026e-06 6.75937e-07 1.67016e-26 4.49903e-06 8.84628e-27 4.50081e-06)
(4.514e-06 6.77462e-07 -4.8704e-28 4.51018e-06 -1.21079e-27 4.51209e-06)
(4.5255e-06 6.79009e-07 2.24462e-26 4.52145e-06 -1.90993e-26 4.52347e-06)
(4.53712e-06 6.80602e-07 -6.44475e-27 4.53283e-06 8.25922e-27 4.53497e-06)
(4.54872e-06 6.82198e-07 1.20006e-27 4.54423e-06 3.71801e-27 4.54647e-06)
(4.56034e-06 6.83825e-07 1.20191e-28 4.55564e-06 2.64686e-26 4.55799e-06)
(4.5719e-06 6.8544e-07 -2.47471e-28 4.56701e-06 -4.73553e-27 4.56945e-06)
(4.58339e-06 6.8706e-07 4.07425e-27 4.57833e-06 -8.54934e-27 4.58086e-06)
(4.59467e-06 6.88651e-07 -8.16283e-27 4.58945e-06 3.85681e-26 4.59206e-06)
(4.60576e-06 6.90223e-07 2.50011e-26 4.60039e-06 3.70494e-26 4.60307e-06)
(4.61653e-06 6.91755e-07 -1.09178e-26 4.61104e-06 -3.17553e-26 4.61379e-06)
(4.62692e-06 6.93219e-07 -7.49268e-28 4.62131e-06 -1.82643e-27 4.62411e-06)
(4.63691e-06 6.94636e-07 -5.5126e-27 4.63121e-06 6.4772e-27 4.63406e-06)
(4.64633e-06 6.95951e-07 1.64255e-26 4.64054e-06 -9.59512e-26 4.64343e-06)
(4.65508e-06 6.97157e-07 6.8778e-26 4.64924e-06 5.73789e-26 4.65216e-06)
(4.66307e-06 6.98244e-07 1.59768e-26 4.65717e-06 1.45355e-27 4.66012e-06)
(4.67022e-06 6.99194e-07 -7.26091e-26 4.6643e-06 -5.16009e-26 4.66726e-06)
(4.67641e-06 6.9997e-07 6.74484e-26 4.67048e-06 6.85029e-26 4.67344e-06)
(4.68154e-06 7.00567e-07 7.76608e-26 4.67561e-06 2.98843e-26 4.67857e-06)
(4.6855e-06 7.00964e-07 -7.25046e-26 4.67959e-06 -7.43693e-26 4.68255e-06)
(4.68829e-06 7.01169e-07 -3.14475e-27 4.68242e-06 1.1464e-25 4.68535e-06)
(4.68969e-06 7.01116e-07 -6.73298e-27 4.68387e-06 -1.1499e-25 4.68678e-06)
(4.6898e-06 7.00861e-07 -2.91918e-26 4.68405e-06 -1.14001e-25 4.68692e-06)
(4.68828e-06 7.00311e-07 -9.33228e-27 4.68262e-06 -1.27458e-25 4.68545e-06)
(4.68544e-06 6.99556e-07 1.28967e-25 4.67988e-06 -1.68827e-26 4.68266e-06)
(4.68058e-06 6.9842e-07 -1.87412e-25 4.67514e-06 -3.99563e-26 4.67786e-06)
(4.67463e-06 6.97162e-07 -1.17563e-26 4.66932e-06 -4.42173e-28 4.67197e-06)
(4.66667e-06 6.95493e-07 -2.532e-26 4.66151e-06 -1.89381e-26 4.66409e-06)
(4.65826e-06 6.93891e-07 1.6278e-25 4.65326e-06 1.2392e-25 4.65575e-06)
(4.64727e-06 6.91733e-07 -4.91212e-26 4.64249e-06 1.02098e-25 4.64488e-06)
(4.63579e-06 6.8963e-07 5.05956e-26 4.63122e-06 -6.7674e-26 4.63349e-06)
(4.62084e-06 6.86721e-07 4.01115e-27 4.61652e-06 -1.40172e-26 4.61868e-06)
(4.60593e-06 6.83902e-07 -7.72e-27 4.60186e-06 -1.95191e-28 4.60389e-06)
(4.58948e-06 6.80703e-07 1.45712e-25 4.58571e-06 8.30148e-26 4.58759e-06)
(4.57279e-06 6.7744e-07 7.63946e-27 4.56934e-06 2.43131e-27 4.57106e-06)
(4.55516e-06 6.73994e-07 -1.25142e-28 4.5521e-06 -2.0568e-26 4.55363e-06)
(4.5356e-06 6.7024e-07 5.62254e-27 4.53298e-06 -1.69171e-26 4.53429e-06)
(4.51376e-06 6.66206e-07 -6.13382e-26 4.51161e-06 -3.11972e-26 4.51267e-06)