/*--------------------------------*- C++ -*----------------------------------*\
| =========                 |                                                 |
| \\      /  F ield         | OpenFOAM: The Open Source CFD Toolbox           |
|  \\    /   O peration     | Version:  v2012                                 |
|   \\  /    A nd           | Website:  www.openfoam.com                      |
|    \\/     M anipulation  |                                                 |
\*---------------------------------------------------------------------------*/
FoamFile
{
    version     2.0;
    format      ascii;
    class       volSymmTensorField;
    location    "20000";
    object      turbulenceProperties:R;
}
// * * * * * * * * * * * * * * * * * * * * * * * * * * * * * * * * * * * * * //

dimensions      [0 2 -2 0 0 0 0];


internalField   nonuniform List<symmTensor> 
14751
(
(9.29943e-07 1.08768e-08 7.86296e-38 9.29937e-07 1.56471e-32 9.2994e-07)
(9.29722e-07 1.0945e-08 1.10571e-31 9.29717e-07 -1.26722e-28 9.2972e-07)
(9.29101e-07 1.10229e-08 -1.13184e-30 9.29099e-07 -4.80874e-30 9.291e-07)
(9.2722e-07 1.10545e-08 1.80854e-30 9.2722e-07 5.94865e-30 9.2722e-07)
(9.24532e-07 1.10763e-08 -6.95417e-31 9.24535e-07 5.89613e-30 9.24533e-07)
(9.21018e-07 1.10649e-08 -6.15337e-32 9.21023e-07 -1.3942e-29 9.21019e-07)
(9.16463e-07 1.10244e-08 -6.72608e-32 9.16471e-07 -4.15861e-28 9.16466e-07)
(9.11262e-07 1.09626e-08 4.44661e-31 9.11272e-07 4.50886e-31 9.11266e-07)
(9.05428e-07 1.08753e-08 5.00415e-32 9.0544e-07 3.78464e-28 9.05433e-07)
(8.99087e-07 1.07682e-08 1.547e-33 8.99101e-07 5.86032e-30 8.99092e-07)
(8.92339e-07 1.06426e-08 4.0097e-33 8.92355e-07 3.45644e-28 8.92346e-07)
(8.85292e-07 1.0501e-08 -4.02297e-33 8.85309e-07 1.52304e-32 8.85299e-07)
(8.77965e-07 1.03442e-08 6.34572e-33 8.77983e-07 -3.08133e-28 8.77972e-07)
(8.70465e-07 1.01768e-08 5.51963e-32 8.70483e-07 -1.75408e-29 8.70472e-07)
(8.62918e-07 1.00016e-08 -8.40039e-31 8.62937e-07 3.36056e-29 8.62926e-07)
(8.55364e-07 9.82091e-09 -7.99617e-32 8.55383e-07 -1.06943e-30 8.55373e-07)
(8.47944e-07 9.63794e-09 3.90156e-31 8.47963e-07 -2.99126e-29 8.47953e-07)
(8.40671e-07 9.45364e-09 3.87906e-32 8.4069e-07 1.46181e-29 8.40679e-07)
(8.33698e-07 9.27189e-09 -5.30064e-33 8.33716e-07 9.39205e-29 8.33706e-07)
(8.27125e-07 9.09448e-09 7.94593e-33 8.27143e-07 1.29856e-29 8.27133e-07)
(8.21118e-07 8.92407e-09 -4.74403e-32 8.21136e-07 -2.26562e-32 8.21126e-07)
(8.15638e-07 8.76056e-09 3.32307e-32 8.15655e-07 -9.03743e-29 8.15646e-07)
(8.10465e-07 8.60206e-09 -3.97001e-32 8.10482e-07 9.65575e-29 8.10473e-07)
(8.05499e-07 8.44808e-09 3.46764e-32 8.05515e-07 -1.0289e-28 8.05506e-07)
(8.00826e-07 8.30046e-09 4.68841e-32 8.00841e-07 1.01245e-29 8.00833e-07)
(7.9642e-07 8.15879e-09 -3.50365e-32 7.96434e-07 -3.30985e-32 7.96426e-07)
(7.923e-07 8.02364e-09 -1.57456e-33 7.92314e-07 3.2681e-38 7.92306e-07)
(7.88454e-07 7.89489e-09 -1.9566e-33 7.88467e-07 7.25499e-29 7.8846e-07)
(7.84887e-07 7.77285e-09 4.02291e-32 7.849e-07 4.45123e-30 7.84893e-07)
(7.81594e-07 7.65738e-09 8.4474e-33 7.81606e-07 -4.45961e-30 7.816e-07)
(7.78575e-07 7.5484e-09 -2.33476e-32 7.78585e-07 4.41026e-30 7.7858e-07)
(7.75808e-07 7.44574e-09 -2.09556e-32 7.75818e-07 7.31667e-33 7.75813e-07)
(7.73295e-07 7.34931e-09 2.2234e-35 7.73305e-07 3.12324e-29 7.733e-07)
(7.71022e-07 7.25884e-09 -1.87519e-32 7.71031e-07 3.39146e-29 7.71027e-07)
(7.68983e-07 7.17412e-09 -3.85679e-33 7.68991e-07 2.29465e-30 7.68987e-07)
(7.67156e-07 7.09511e-09 4.62417e-33 7.67164e-07 3.54343e-29 7.6716e-07)
(7.6555e-07 7.02191e-09 -1.74785e-33 7.65557e-07 -3.90006e-29 7.65553e-07)
(7.64143e-07 6.95387e-09 -2.62864e-34 7.6415e-07 -8.04745e-32 7.64147e-07)
(7.6293e-07 6.89075e-09 -3.65504e-36 7.62936e-07 2.55861e-30 7.62933e-07)
(7.61891e-07 6.83275e-09 1.62037e-34 7.61896e-07 -1.37643e-30 7.61893e-07)
(7.61044e-07 6.7801e-09 3.96208e-32 7.61049e-07 -5.07727e-32 7.61047e-07)
(7.60351e-07 6.73187e-09 -5.63216e-31 7.60356e-07 1.058e-30 7.60353e-07)
(7.59805e-07 6.68766e-09 -2.96089e-32 7.59809e-07 1.16577e-37 7.59807e-07)
(7.59405e-07 6.64754e-09 -1.39274e-31 7.59408e-07 -1.01077e-31 7.59407e-07)
(7.59119e-07 6.61098e-09 -1.11511e-32 7.59121e-07 -8.48077e-31 7.5912e-07)
(7.58979e-07 6.57869e-09 1.29386e-32 7.58981e-07 1.47027e-29 7.5898e-07)
(7.58979e-07 6.55068e-09 -1.37453e-31 7.58981e-07 6.65448e-30 7.5898e-07)
(7.59133e-07 6.52703e-09 -1.27149e-32 7.59134e-07 -7.08102e-30 7.59133e-07)
(7.59426e-07 6.50766e-09 1.88829e-36 7.59427e-07 1.53154e-35 7.59427e-07)
(7.5988e-07 6.49283e-09 -1.50118e-32 7.5988e-07 3.96751e-34 7.5988e-07)
(7.605e-07 6.48261e-09 1.35936e-31 7.605e-07 -2.27176e-30 7.605e-07)
(7.6126e-07 6.47676e-09 1.47701e-32 7.6126e-07 2.71992e-31 7.6126e-07)
(7.62154e-07 6.47504e-09 6.5409e-34 7.62153e-07 1.17469e-30 7.62153e-07)
(7.63187e-07 6.47775e-09 -6.73172e-34 7.63186e-07 5.09399e-32 7.63187e-07)
(7.64368e-07 6.48491e-09 1.19971e-33 7.64366e-07 -2.49614e-30 7.64367e-07)
(7.65694e-07 6.49658e-09 -4.75497e-34 7.65692e-07 1.27268e-30 7.65693e-07)
(7.67168e-07 6.5127e-09 1.77106e-32 7.67165e-07 7.92054e-33 7.67167e-07)
(7.68782e-07 6.53338e-09 -1.16137e-31 7.68779e-07 -1.83595e-31 7.6878e-07)
(7.70548e-07 6.55869e-09 -7.31761e-32 7.70545e-07 -1.81475e-31 7.70547e-07)
(7.72462e-07 6.58819e-09 -5.75506e-31 7.72458e-07 -6.71941e-30 7.7246e-07)
(7.74509e-07 6.62163e-09 -7.77838e-32 7.74505e-07 -2.35449e-31 7.74507e-07)
(7.76709e-07 6.65955e-09 -1.81833e-31 7.76704e-07 -1.81594e-31 7.76707e-07)
(7.79063e-07 6.70168e-09 1.12669e-30 7.79057e-07 1.10706e-28 7.7906e-07)
(7.81596e-07 6.74889e-09 1.75053e-31 7.81591e-07 1.05601e-28 7.81593e-07)
(7.84316e-07 6.80125e-09 5.99108e-34 7.8431e-07 -1.08343e-28 7.84313e-07)
(7.87216e-07 6.8583e-09 -5.08147e-32 7.8721e-07 -7.50618e-37 7.87213e-07)
(7.9033e-07 6.92012e-09 2.96083e-31 7.90323e-07 1.48118e-29 7.90327e-07)
(7.93677e-07 6.98729e-09 7.29497e-32 7.9367e-07 -1.43119e-29 7.93673e-07)
(7.97317e-07 7.06045e-09 -1.22778e-31 7.9731e-07 -2.36296e-31 7.97313e-07)
(8.0129e-07 7.13901e-09 -2.02841e-31 8.01283e-07 -1.21667e-28 8.01287e-07)
(8.05597e-07 7.22279e-09 1.247e-31 8.05589e-07 2.46405e-31 8.05593e-07)
(8.10104e-07 7.31049e-09 2.71843e-32 8.10096e-07 1.59521e-29 8.101e-07)
(8.14711e-07 7.40136e-09 3.53212e-33 8.14703e-07 2.4126e-28 8.14707e-07)
(8.19411e-07 7.49512e-09 1.57677e-32 8.19402e-07 2.61679e-28 8.19407e-07)
(8.24178e-07 7.59156e-09 -1.56644e-31 8.24169e-07 3.31636e-29 8.24173e-07)
(8.29025e-07 7.69153e-09 -1.56086e-32 8.29016e-07 -9.88731e-32 8.2902e-07)
(8.33951e-07 7.79456e-09 4.55431e-33 8.33942e-07 -2.73603e-28 8.33947e-07)
(8.38918e-07 7.90052e-09 1.29864e-33 8.38909e-07 -2.77173e-28 8.38913e-07)
(8.43938e-07 8.00982e-09 6.69352e-32 8.43928e-07 3.53036e-29 8.43933e-07)
(8.48965e-07 8.12125e-09 -2.87127e-31 8.48955e-07 -3.5667e-29 8.4896e-07)
(8.54039e-07 8.236e-09 -3.51955e-31 8.54028e-07 2.85685e-28 8.54033e-07)
(8.59105e-07 8.35326e-09 -3.98414e-31 8.59095e-07 -6.88916e-31 8.591e-07)
(8.64199e-07 8.47509e-09 -7.10957e-32 8.64188e-07 3.66305e-29 8.64193e-07)
(8.69293e-07 8.59983e-09 6.35968e-32 8.69281e-07 -7.31396e-29 8.69287e-07)
(8.74379e-07 8.72893e-09 -3.0558e-31 8.74367e-07 3.60669e-29 8.74373e-07)
(8.79493e-07 8.86279e-09 -5.06719e-31 8.7948e-07 5.89771e-28 8.79487e-07)
(8.84586e-07 9.00131e-09 3.17212e-31 8.84573e-07 -1.79774e-29 8.8458e-07)
(8.89633e-07 9.14458e-09 6.81508e-32 8.8962e-07 1.84792e-29 8.89627e-07)
(8.94607e-07 9.29165e-09 -0 8.94593e-07 -0 8.946e-07)
(8.99447e-07 9.44284e-09 1.32107e-31 8.99433e-07 -9.23046e-30 8.9944e-07)
(9.04147e-07 9.59714e-09 -8.03253e-31 9.04133e-07 7.9865e-30 9.0414e-07)
(9.08554e-07 9.75169e-09 -1.26386e-31 9.08539e-07 5.88214e-28 9.08547e-07)
(9.12647e-07 9.90877e-09 -5.83243e-32 9.12633e-07 2.19745e-30 9.1264e-07)
(9.16427e-07 1.00633e-08 -4.55351e-33 9.16413e-07 -1.3532e-29 9.1642e-07)
(9.19647e-07 1.02134e-08 1.08671e-32 9.19633e-07 8.89967e-30 9.1964e-07)
(9.22613e-07 1.03635e-08 -3.66533e-32 9.226e-07 2.76753e-28 9.22607e-07)
(9.24952e-07 1.04986e-08 2.20202e-31 9.24941e-07 2.49717e-30 9.24947e-07)
(9.26898e-07 1.06209e-08 2.99917e-32 9.26888e-07 2.15416e-30 9.26893e-07)
(9.28358e-07 1.07564e-08 -4.84885e-34 9.28348e-07 5.69757e-41 9.28354e-07)
(1.3497e-06 6.1149e-08 -3.11686e-29 1.34962e-06 8.84305e-32 1.34966e-06)
(1.34949e-06 6.14638e-08 3.29806e-28 1.34943e-06 6.51579e-28 1.34946e-06)
(1.34885e-06 6.18144e-08 4.7326e-29 1.34882e-06 -5.88107e-29 1.34883e-06)
(1.34631e-06 6.19947e-08 -1.57383e-29 1.34632e-06 7.41192e-29 1.34631e-06)
(1.34261e-06 6.21165e-08 -1.77577e-29 1.34265e-06 4.95712e-27 1.34263e-06)
(1.33757e-06 6.21024e-08 -7.24766e-29 1.33765e-06 -4.78381e-27 1.33761e-06)
(1.33086e-06 6.19457e-08 1.3206e-27 1.33098e-06 2.14743e-27 1.33092e-06)
(1.3231e-06 6.16855e-08 1.98302e-28 1.32324e-06 -9.70545e-30 1.32317e-06)
(1.3143e-06 6.13067e-08 -1.29737e-27 1.31447e-06 -1.91984e-27 1.31439e-06)
(1.30465e-06 6.08285e-08 -2.26397e-29 1.30485e-06 -3.89563e-27 1.30475e-06)
(1.29432e-06 6.02593e-08 -1.28809e-27 1.29454e-06 2.07899e-27 1.29443e-06)
(1.28348e-06 5.96114e-08 -1.68636e-28 1.28372e-06 -1.13524e-28 1.2836e-06)
(1.27214e-06 5.88867e-08 1.24553e-27 1.2724e-06 1.52313e-27 1.27227e-06)
(1.2605e-06 5.81069e-08 1.46109e-28 1.26078e-06 -9.56444e-30 1.26064e-06)
(1.24877e-06 5.72881e-08 -1.05934e-28 1.24905e-06 2.79131e-27 1.24891e-06)
(1.23702e-06 5.64393e-08 -1.51203e-29 1.23731e-06 1.79655e-28 1.23717e-06)
(1.22547e-06 5.55785e-08 1.11959e-28 1.22576e-06 -1.30972e-29 1.22561e-06)
(1.21413e-06 5.47083e-08 -2.1806e-29 1.21442e-06 8.59524e-30 1.21427e-06)
(1.20326e-06 5.38508e-08 -5.09999e-28 1.20355e-06 -3.82618e-28 1.20341e-06)
(1.19305e-06 5.30159e-08 -7.731e-29 1.19333e-06 -1.32768e-28 1.19319e-06)
(1.18373e-06 5.22208e-08 -2.74149e-29 1.184e-06 -2.15313e-31 1.18387e-06)
(1.17529e-06 5.14651e-08 5.58175e-28 1.17555e-06 3.12157e-28 1.17542e-06)
(1.1673e-06 5.07338e-08 -5.75145e-28 1.16756e-06 -2.82862e-28 1.16743e-06)
(1.15965e-06 5.00202e-08 5.87575e-28 1.1599e-06 -1.41397e-27 1.15977e-06)
(1.15243e-06 4.93354e-08 -1.99739e-29 1.15267e-06 -8.53286e-28 1.15255e-06)
(1.14564e-06 4.86774e-08 -2.5439e-30 1.14587e-06 1.02037e-28 1.14575e-06)
(1.13928e-06 4.80495e-08 1.9881e-29 1.1395e-06 -9.11069e-28 1.13939e-06)
(1.13335e-06 4.74511e-08 -4.821e-28 1.13356e-06 -3.41366e-28 1.13346e-06)
(1.12786e-06 4.68842e-08 -4.32028e-29 1.12806e-06 5.21058e-29 1.12796e-06)
(1.12279e-06 4.63484e-08 2.19133e-29 1.12298e-06 -5.18225e-29 1.12289e-06)
(1.11814e-06 4.58431e-08 -1.99325e-29 1.11832e-06 -7.65611e-28 1.11823e-06)
(1.1139e-06 4.53683e-08 7.70911e-30 1.11406e-06 8.19687e-28 1.11398e-06)
(1.11004e-06 4.49229e-08 -1.96035e-28 1.11019e-06 5.11275e-28 1.11011e-06)
(1.10655e-06 4.45065e-08 -2.2148e-28 1.1067e-06 2.73672e-28 1.10663e-06)
(1.10343e-06 4.41178e-08 -9.82885e-30 1.10356e-06 1.80762e-30 1.10349e-06)
(1.10064e-06 4.37567e-08 -2.20675e-28 1.10076e-06 -1.5172e-28 1.1007e-06)
(1.0982e-06 4.34244e-08 2.07374e-28 1.09831e-06 1.81675e-28 1.09825e-06)
(1.09607e-06 4.31171e-08 1.14299e-29 1.09618e-06 -4.66568e-28 1.09613e-06)
(1.09424e-06 4.28343e-08 -1.02072e-29 1.09434e-06 2.1141e-30 1.09429e-06)
(1.0927e-06 4.25768e-08 4.12002e-30 1.09278e-06 -1.14142e-30 1.09274e-06)
(1.09145e-06 4.23458e-08 3.4058e-31 1.09153e-06 -1.57396e-29 1.09149e-06)
(1.09044e-06 4.21365e-08 -1.77966e-30 1.09052e-06 2.61899e-29 1.09048e-06)
(1.08966e-06 4.19466e-08 -1.02056e-31 1.08972e-06 -1.6344e-29 1.08969e-06)
(1.0891e-06 4.17766e-08 5.0193e-31 1.08915e-06 2.76547e-28 1.08913e-06)
(1.08872e-06 4.16234e-08 6.54357e-30 1.08876e-06 2.89909e-28 1.08874e-06)
(1.08856e-06 4.14915e-08 -5.17017e-29 1.08859e-06 -6.34243e-29 1.08857e-06)
(1.08861e-06 4.13806e-08 -2.9738e-29 1.08864e-06 3.53491e-30 1.08863e-06)
(1.0889e-06 4.12918e-08 2.25926e-29 1.08892e-06 3.00239e-29 1.08891e-06)
(1.08942e-06 4.12245e-08 1.96522e-30 1.08943e-06 6.64352e-30 1.08943e-06)
(1.0902e-06 4.11806e-08 -5.21326e-31 1.0902e-06 -1.37529e-30 1.0902e-06)
(1.09122e-06 4.11603e-08 6.27526e-30 1.09122e-06 5.89552e-29 1.09122e-06)
(1.09247e-06 4.11612e-08 2.70638e-31 1.09246e-06 2.30241e-31 1.09247e-06)
(1.09392e-06 4.11822e-08 -2.37279e-30 1.0939e-06 1.39078e-29 1.09391e-06)
(1.0956e-06 4.12253e-08 -1.02813e-30 1.09557e-06 -2.09402e-28 1.09559e-06)
(1.0975e-06 4.12903e-08 4.96313e-30 1.09746e-06 -1.54073e-29 1.09748e-06)
(1.09963e-06 4.13776e-08 -1.63237e-30 1.09958e-06 -4.79097e-28 1.09961e-06)
(1.10198e-06 4.14869e-08 -5.42001e-31 1.10193e-06 -1.1218e-30 1.10195e-06)
(1.10457e-06 4.16188e-08 5.3301e-31 1.10451e-06 2.63717e-29 1.10454e-06)
(1.10738e-06 4.17725e-08 -1.55223e-30 1.10731e-06 6.00272e-29 1.10735e-06)
(1.11042e-06 4.19465e-08 1.25199e-29 1.11034e-06 -8.24604e-29 1.11038e-06)
(1.11366e-06 4.21388e-08 2.48246e-30 1.11357e-06 2.6709e-32 1.11361e-06)
(1.11713e-06 4.23518e-08 3.20409e-29 1.11703e-06 -1.16093e-27 1.11708e-06)
(1.12083e-06 4.25852e-08 -1.96574e-28 1.12073e-06 -3.71748e-28 1.12078e-06)
(1.12482e-06 4.28431e-08 -2.73319e-28 1.12471e-06 6.61429e-28 1.12477e-06)
(1.1291e-06 4.31257e-08 1.84282e-28 1.12898e-06 6.53425e-28 1.12904e-06)
(1.13366e-06 4.34305e-08 3.42476e-29 1.13354e-06 9.08359e-28 1.1336e-06)
(1.13854e-06 4.37582e-08 -2.51668e-29 1.13842e-06 2.6524e-27 1.13848e-06)
(1.1438e-06 4.4112e-08 1.51665e-29 1.14367e-06 1.48994e-28 1.14373e-06)
(1.14952e-06 4.44955e-08 -2.87787e-29 1.14938e-06 -1.64487e-28 1.14945e-06)
(1.15577e-06 4.49072e-08 2.24963e-28 1.15563e-06 3.20879e-27 1.1557e-06)
(1.16254e-06 4.53461e-08 3.6627e-29 1.16239e-06 -2.6935e-27 1.16247e-06)
(1.16963e-06 4.58029e-08 4.40029e-29 1.16948e-06 -2.73751e-27 1.16955e-06)
(1.17686e-06 4.62704e-08 -3.74908e-28 1.1767e-06 -8.68308e-28 1.17678e-06)
(1.1842e-06 4.67465e-08 -5.24828e-28 1.18403e-06 -1.58725e-27 1.18411e-06)
(1.19162e-06 4.72304e-08 -1.13625e-28 1.19146e-06 -3.4577e-28 1.19154e-06)
(1.19916e-06 4.77243e-08 -3.86573e-29 1.19899e-06 -3.6366e-28 1.19907e-06)
(1.20679e-06 4.82283e-08 4.11682e-28 1.20662e-06 1.30066e-27 1.20671e-06)
(1.21446e-06 4.8738e-08 5.74121e-28 1.21428e-06 -4.70348e-27 1.21437e-06)
(1.2222e-06 4.92568e-08 1.78374e-29 1.22202e-06 -3.60289e-28 1.22211e-06)
(1.22989e-06 4.97763e-08 1.14091e-28 1.22971e-06 3.49889e-28 1.2298e-06)
(1.23763e-06 5.0304e-08 -5.00649e-28 1.23744e-06 -1.38969e-27 1.23753e-06)
(1.2453e-06 5.08344e-08 -6.47411e-29 1.24511e-06 -6.67306e-27 1.24521e-06)
(1.253e-06 5.13771e-08 -6.86397e-29 1.2528e-06 -5.89985e-27 1.2529e-06)
(1.26066e-06 5.19253e-08 9.79989e-29 1.26045e-06 -4.38721e-28 1.26055e-06)
(1.26827e-06 5.24839e-08 1.23986e-28 1.26806e-06 4.06694e-28 1.26817e-06)
(1.27589e-06 5.30579e-08 -1.10682e-27 1.27568e-06 -3.11103e-27 1.27579e-06)
(1.28346e-06 5.36447e-08 -1.23361e-28 1.28325e-06 6.82574e-32 1.28335e-06)
(1.29094e-06 5.42444e-08 -2.18172e-29 1.29072e-06 4.09408e-28 1.29083e-06)
(1.29827e-06 5.48536e-08 -7.12281e-30 1.29805e-06 -2.00155e-28 1.29816e-06)
(1.30536e-06 5.54692e-08 1.4806e-29 1.30514e-06 -1.03705e-28 1.30525e-06)
(1.31222e-06 5.60902e-08 1.42512e-28 1.312e-06 6.45411e-27 1.31211e-06)
(1.31859e-06 5.67027e-08 -1.19993e-27 1.31838e-06 -2.97573e-27 1.31849e-06)
(1.32447e-06 5.73097e-08 -1.55779e-28 1.32425e-06 -6.26378e-27 1.32436e-06)
(1.32987e-06 5.79075e-08 2.46589e-29 1.32967e-06 6.22385e-27 1.32977e-06)
(1.33438e-06 5.84695e-08 5.70534e-29 1.33419e-06 -9.2702e-29 1.33429e-06)
(1.33858e-06 5.90367e-08 -6.25316e-28 1.33841e-06 -1.29687e-27 1.33849e-06)
(1.34184e-06 5.95434e-08 -7.25804e-29 1.34169e-06 2.94552e-27 1.34177e-06)
(1.34468e-06 6.00529e-08 -4.61879e-30 1.34454e-06 4.6277e-31 1.3446e-06)
(1.34693e-06 6.05854e-08 -5.24336e-31 1.3468e-06 2.21649e-32 1.34687e-06)
(2.12447e-06 1.87587e-07 9.82052e-29 2.12416e-06 -3.40925e-32 2.12431e-06)
(2.12436e-06 1.88464e-07 -1.06302e-27 2.12415e-06 2.49987e-27 2.12427e-06)
(2.12452e-06 1.8953e-07 -1.43422e-29 2.12447e-06 1.56214e-26 2.12449e-06)
(2.12283e-06 1.90392e-07 6.45218e-28 2.12296e-06 1.52984e-26 2.1229e-06)
(2.12021e-06 1.91193e-07 -1.34259e-26 2.1205e-06 1.54954e-26 2.12036e-06)
(2.11613e-06 1.91803e-07 1.23242e-26 2.11661e-06 1.39176e-26 2.11638e-06)
(2.10941e-06 1.9201e-07 -3.59978e-27 2.11007e-06 3.57369e-26 2.10975e-06)
(2.10123e-06 1.91983e-07 -6.10479e-28 2.10206e-06 -2.62839e-26 2.10165e-06)
(2.09157e-06 1.91689e-07 3.60308e-27 2.09256e-06 1.71748e-26 2.09207e-06)
(2.08064e-06 1.91146e-07 1.3034e-26 2.08178e-06 -1.32263e-26 2.08122e-06)
(2.06867e-06 1.90372e-07 -7.84675e-27 2.06994e-06 5.30739e-27 2.06931e-06)
(2.05589e-06 1.89391e-07 2.90218e-28 2.05727e-06 -2.61098e-29 2.05659e-06)
(2.04229e-06 1.88206e-07 -4.0809e-27 2.04376e-06 6.51999e-27 2.04303e-06)
(2.02816e-06 1.86861e-07 1.86989e-28 2.0297e-06 9.29358e-28 2.02894e-06)
(2.01378e-06 1.85398e-07 -1.12842e-26 2.01538e-06 -9.5781e-27 2.01459e-06)
(1.99926e-06 1.83828e-07 -1.09282e-27 2.0009e-06 7.50504e-29 2.00009e-06)
(1.98491e-06 1.82204e-07 -3.066e-29 1.98658e-06 5.9019e-28 1.98575e-06)
(1.97077e-06 1.80528e-07 -6.81747e-29 1.97244e-06 -1.54819e-26 1.97161e-06)
(1.95726e-06 1.7886e-07 1.24671e-27 1.95892e-06 1.14339e-26 1.9581e-06)
(1.94468e-06 1.77231e-07 6.59245e-28 1.94631e-06 1.4125e-26 1.9455e-06)
(1.93347e-06 1.75704e-07 9.15435e-29 1.93507e-06 -7.80679e-28 1.93428e-06)
(1.92368e-06 1.7429e-07 -1.2784e-27 1.92524e-06 3.49794e-27 1.92446e-06)
(1.91445e-06 1.72915e-07 8.81807e-28 1.91597e-06 -1.37927e-26 1.91522e-06)
(1.90554e-06 1.71551e-07 8.75796e-27 1.90701e-06 6.54902e-27 1.90628e-06)
(1.89715e-06 1.70232e-07 5.48748e-27 1.89857e-06 1.8592e-27 1.89786e-06)
(1.88925e-06 1.68954e-07 -5.43775e-28 1.89061e-06 3.68691e-28 1.88994e-06)
(1.88188e-06 1.67727e-07 5.53939e-27 1.88318e-06 7.29041e-27 1.88254e-06)
(1.87502e-06 1.66551e-07 1.80685e-27 1.87626e-06 -1.33885e-27 1.87564e-06)
(1.8687e-06 1.65432e-07 -1.92179e-28 1.86988e-06 2.32484e-28 1.86929e-06)
(1.86291e-06 1.64371e-07 1.02795e-28 1.86402e-06 7.56634e-29 1.86347e-06)
(1.85764e-06 1.6337e-07 5.04867e-27 1.85869e-06 6.8978e-27 1.85817e-06)
(1.85288e-06 1.62427e-07 -4.8466e-27 1.85387e-06 -7.30692e-27 1.85337e-06)
(1.84861e-06 1.61542e-07 -3.64278e-27 1.84954e-06 -2.62202e-27 1.84907e-06)
(1.84482e-06 1.60715e-07 -1.95909e-27 1.84569e-06 -1.70575e-27 1.84525e-06)
(1.84148e-06 1.59946e-07 -8.22976e-29 1.84229e-06 -2.05643e-28 1.84189e-06)
(1.83858e-06 1.59233e-07 6.64451e-28 1.83932e-06 -3.43142e-27 1.83895e-06)
(1.83615e-06 1.58582e-07 -7.90269e-28 1.83683e-06 -1.79767e-27 1.83649e-06)
(1.83411e-06 1.57983e-07 2.385e-27 1.83473e-06 -1.39896e-27 1.83442e-06)
(1.83245e-06 1.57438e-07 9.07111e-29 1.83302e-06 -2.31347e-28 1.83273e-06)
(1.83117e-06 1.56946e-07 -2.73566e-30 1.83167e-06 -2.87535e-27 1.83142e-06)
(1.83027e-06 1.56512e-07 6.4273e-29 1.83072e-06 -2.00393e-28 1.83049e-06)
(1.8297e-06 1.56126e-07 -1.15811e-28 1.8301e-06 1.1315e-28 1.8299e-06)
(1.8294e-06 1.55779e-07 1.06066e-28 1.82974e-06 -1.70242e-27 1.82957e-06)
(1.82939e-06 1.55476e-07 -1.05865e-27 1.82968e-06 -7.63578e-28 1.82953e-06)
(1.8296e-06 1.55208e-07 -1.18411e-27 1.82984e-06 1.35934e-28 1.82972e-06)
(1.8301e-06 1.54987e-07 1.16987e-28 1.83028e-06 -2.76943e-28 1.83019e-06)
(1.83089e-06 1.54813e-07 1.0852e-28 1.83102e-06 -2.2578e-28 1.83095e-06)
(1.832e-06 1.5469e-07 -7.09129e-29 1.83207e-06 1.94861e-28 1.83203e-06)
(1.83342e-06 1.54617e-07 -2.49129e-29 1.83344e-06 2.71604e-30 1.83343e-06)
(1.83519e-06 1.54602e-07 1.36738e-29 1.83516e-06 8.53668e-30 1.83517e-06)
(1.83729e-06 1.54639e-07 -1.58784e-28 1.8372e-06 -9.44256e-29 1.83725e-06)
(1.83963e-06 1.54715e-07 -8.89509e-30 1.83949e-06 -6.22559e-28 1.83956e-06)
(1.84224e-06 1.54837e-07 -6.90664e-29 1.84205e-06 -1.93295e-29 1.84215e-06)
(1.84514e-06 1.55008e-07 5.45243e-28 1.8449e-06 5.78861e-28 1.84502e-06)
(1.84834e-06 1.55227e-07 -2.49987e-29 1.84805e-06 -4.15733e-29 1.84819e-06)
(1.85184e-06 1.55497e-07 1.16226e-27 1.85149e-06 1.29458e-27 1.85167e-06)
(1.85563e-06 1.55814e-07 9.91678e-29 1.85523e-06 -1.88317e-28 1.85543e-06)
(1.85972e-06 1.56179e-07 -4.36957e-29 1.85928e-06 4.07671e-28 1.8595e-06)
(1.86409e-06 1.5659e-07 -1.31813e-28 1.8636e-06 -3.30119e-27 1.86385e-06)
(1.86873e-06 1.57042e-07 1.01618e-28 1.86819e-06 6.44176e-27 1.86846e-06)
(1.8736e-06 1.57527e-07 -2.11638e-28 1.87301e-06 2.08802e-28 1.87331e-06)
(1.87875e-06 1.58051e-07 2.26812e-27 1.87812e-06 2.54255e-27 1.87843e-06)
(1.88418e-06 1.58615e-07 9.21091e-28 1.8835e-06 -1.69091e-27 1.88384e-06)
(1.88993e-06 1.59226e-07 -1.32692e-27 1.88922e-06 -5.54832e-27 1.88957e-06)
(1.89603e-06 1.59883e-07 -8.83316e-28 1.89528e-06 -5.35215e-27 1.89565e-06)
(1.90247e-06 1.60581e-07 -1.46894e-27 1.90168e-06 -3.44057e-27 1.90207e-06)
(1.90929e-06 1.6132e-07 -4.9953e-27 1.90846e-06 -7.08301e-27 1.90887e-06)
(1.91657e-06 1.62108e-07 -7.62379e-28 1.91571e-06 1.35279e-27 1.91614e-06)
(1.9245e-06 1.62957e-07 8.28685e-28 1.92361e-06 1.51182e-26 1.92405e-06)
(1.93318e-06 1.63869e-07 -5.93503e-27 1.93225e-06 -4.53039e-27 1.93271e-06)
(1.94262e-06 1.64847e-07 3.64452e-27 1.94167e-06 7.37979e-27 1.94215e-06)
(1.95244e-06 1.65851e-07 5.11059e-27 1.95147e-06 7.22895e-27 1.95195e-06)
(1.96226e-06 1.66845e-07 1.20807e-27 1.96126e-06 -5.25211e-27 1.96176e-06)
(1.97203e-06 1.67823e-07 2.16611e-27 1.97101e-06 -5.89813e-27 1.97152e-06)
(1.98169e-06 1.68781e-07 7.64065e-28 1.98066e-06 -7.76075e-28 1.98118e-06)
(1.99128e-06 1.69722e-07 -1.77442e-28 1.99023e-06 -1.15944e-28 1.99075e-06)
(2.00077e-06 1.70647e-07 -2.32864e-27 1.99971e-06 5.96312e-27 2.00024e-06)
(2.01002e-06 1.71535e-07 8.19922e-27 2.00894e-06 2.49354e-26 2.00948e-06)
(2.0191e-06 1.72402e-07 1.38551e-27 2.01801e-06 -3.12885e-27 2.01855e-06)
(2.02783e-06 1.73219e-07 -7.2932e-28 2.02673e-06 8.56442e-28 2.02728e-06)
(2.03636e-06 1.74016e-07 4.47289e-28 2.03524e-06 -4.40507e-26 2.0358e-06)
(2.04449e-06 1.74766e-07 1.03183e-26 2.04336e-06 1.72189e-26 2.04393e-06)
(2.05239e-06 1.75503e-07 1.11312e-26 2.05125e-06 5.27783e-26 2.05182e-06)
(2.05995e-06 1.76209e-07 1.60925e-27 2.05879e-06 2.53123e-27 2.05937e-06)
(2.0672e-06 1.76898e-07 -1.04408e-27 2.06603e-06 6.25433e-28 2.06661e-06)
(2.07424e-06 1.77593e-07 3.75291e-27 2.07306e-06 -1.10903e-26 2.07365e-06)
(2.08098e-06 1.78284e-07 6.36699e-28 2.07979e-06 3.64987e-26 2.08039e-06)
(2.08739e-06 1.78973e-07 -6.07709e-28 2.0862e-06 9.3505e-28 2.08679e-06)
(2.09339e-06 1.7966e-07 2.11348e-28 2.09221e-06 -4.41412e-29 2.0928e-06)
(2.09886e-06 1.80326e-07 1.15236e-27 2.09769e-06 -3.77669e-26 2.09827e-06)
(2.10384e-06 1.80987e-07 -1.20483e-26 2.1027e-06 -1.80952e-26 2.10327e-06)
(2.10796e-06 1.81603e-07 1.9249e-27 2.10686e-06 -1.18254e-26 2.1074e-06)
(2.11125e-06 1.82179e-07 1.30204e-26 2.11019e-06 1.77904e-26 2.11072e-06)
(2.11397e-06 1.82765e-07 -1.08423e-26 2.11298e-06 -1.74264e-26 2.11347e-06)
(2.11547e-06 1.83261e-07 -9.8069e-28 2.11455e-06 -3.65888e-26 2.11501e-06)
(2.11701e-06 1.83855e-07 2.21615e-27 2.11619e-06 1.27697e-26 2.1166e-06)
(2.11768e-06 1.84412e-07 -5.75908e-27 2.11698e-06 -8.78173e-27 2.11733e-06)
(2.11883e-06 1.85199e-07 -4.23466e-28 2.1182e-06 8.66657e-27 2.11851e-06)
(2.12036e-06 1.86134e-07 -2.41456e-32 2.11982e-06 -3.31423e-29 2.1201e-06)
(3.13201e-06 4.08577e-07 3.14195e-30 3.13133e-06 -6.31507e-31 3.13164e-06)
(3.13098e-06 4.10295e-07 1.71385e-27 3.13067e-06 -5.60922e-27 3.13085e-06)
(3.13172e-06 4.12599e-07 -3.61713e-26 3.13194e-06 -3.18153e-26 3.13182e-06)
(3.13177e-06 4.14938e-07 -3.93323e-26 3.13255e-06 -3.12227e-26 3.13218e-06)
(3.13197e-06 4.17398e-07 -4.80582e-26 3.13328e-06 -3.79509e-26 3.13263e-06)
(3.13153e-06 4.19852e-07 -2.93889e-26 3.13343e-06 1.0084e-25 3.13249e-06)
(3.12816e-06 4.21668e-07 -8.30289e-26 3.13062e-06 -1.91448e-25 3.1294e-06)
(3.12313e-06 4.23106e-07 7.85389e-26 3.12614e-06 5.34576e-26 3.12465e-06)
(3.11589e-06 4.23991e-07 -7.68401e-26 3.11942e-06 -3.4152e-26 3.11767e-06)
(3.10731e-06 4.24492e-07 4.78602e-26 3.11131e-06 8.26887e-26 3.10932e-06)
(3.09763e-06 4.24628e-07 -4.7847e-26 3.10206e-06 -6.39894e-26 3.09986e-06)
(3.08715e-06 4.24456e-07 -1.47777e-27 3.09195e-06 9.81755e-28 3.08956e-06)
(3.07579e-06 4.23941e-07 8.17238e-29 3.0809e-06 -1.29495e-26 3.07836e-06)
(3.06387e-06 4.23146e-07 -3.30436e-27 3.06923e-06 -8.54053e-26 3.06656e-06)
(3.05168e-06 4.22135e-07 3.13028e-26 3.05723e-06 -2.57478e-26 3.05447e-06)
(3.03933e-06 4.20918e-07 1.28483e-27 3.04501e-06 6.75228e-28 3.04218e-06)
(3.02718e-06 4.19584e-07 -2.06097e-27 3.03295e-06 -4.39887e-27 3.03007e-06)
(3.01525e-06 4.18118e-07 7.631e-26 3.02105e-06 3.30484e-26 3.01816e-06)
(3.00411e-06 4.16618e-07 -6.55537e-26 3.00988e-06 -2.54921e-26 3.00701e-06)
(2.99417e-06 4.1515e-07 -7.91241e-26 2.99986e-06 3.90026e-27 2.99703e-06)
(2.98617e-06 4.13849e-07 2.15668e-27 2.99174e-06 -1.07693e-28 2.98897e-06)
(2.98042e-06 4.12828e-07 -9.51409e-27 2.98586e-06 -3.06918e-27 2.98315e-06)
(2.97523e-06 4.11839e-07 7.15844e-26 2.98054e-06 5.27727e-26 2.97789e-06)
(2.97018e-06 4.10805e-07 -2.0443e-26 2.97533e-06 1.17831e-26 2.97277e-06)
(2.96559e-06 4.09789e-07 -1.18204e-26 2.97056e-06 9.97794e-27 2.96808e-06)
(2.96138e-06 4.08783e-07 -1.13909e-27 2.96615e-06 -2.31819e-27 2.96377e-06)
(2.9576e-06 4.07811e-07 -4.71127e-26 2.96217e-06 -1.18773e-27 2.95989e-06)
(2.95425e-06 4.06866e-07 -2.96555e-27 2.95861e-06 5.86158e-27 2.95644e-06)
(2.95136e-06 4.05965e-07 1.8209e-27 2.95549e-06 9.82535e-28 2.95343e-06)
(2.94893e-06 4.05114e-07 1.07499e-27 2.95283e-06 -2.18736e-26 2.95088e-06)
(2.94693e-06 4.0431e-07 -4.67099e-26 2.95061e-06 -1.34378e-26 2.94877e-06)
(2.94537e-06 4.03557e-07 4.55536e-26 2.94882e-06 -9.42104e-27 2.9471e-06)
(2.94424e-06 4.0285e-07 1.12783e-26 2.94746e-06 -4.422e-27 2.94585e-06)
(2.94352e-06 4.02195e-07 5.40909e-27 2.94652e-06 -2.59333e-27 2.94502e-06)
(2.9432e-06 4.01599e-07 6.50637e-28 2.94596e-06 -3.46557e-29 2.94458e-06)
(2.94323e-06 4.01044e-07 1.5695e-26 2.94577e-06 -4.71086e-27 2.9445e-06)
(2.94367e-06 4.00559e-07 1.62188e-26 2.94599e-06 3.35537e-27 2.94483e-06)
(2.94446e-06 4.00119e-07 9.63122e-27 2.94656e-06 1.03775e-26 2.94551e-06)
(2.94555e-06 3.99732e-07 5.99828e-28 2.94744e-06 -4.0532e-29 2.94649e-06)
(2.94696e-06 3.99397e-07 1.53279e-26 2.94864e-06 1.22507e-26 2.9478e-06)
(2.94868e-06 3.99115e-07 1.32823e-27 2.95015e-06 5.28126e-28 2.94941e-06)
(2.95067e-06 3.98884e-07 -6.64541e-28 2.95193e-06 6.9519e-27 2.9513e-06)
(2.95286e-06 3.98679e-07 7.62875e-27 2.95391e-06 3.52535e-27 2.95339e-06)
(2.95529e-06 3.9853e-07 3.07792e-27 2.95614e-06 -2.86451e-27 2.95571e-06)
(2.95785e-06 3.98398e-07 -9.18636e-28 2.95849e-06 -5.0815e-27 2.95817e-06)
(2.96065e-06 3.98316e-07 -2.23687e-28 2.96109e-06 -3.28233e-27 2.96086e-06)
(2.96366e-06 3.9828e-07 3.08375e-28 2.9639e-06 -2.39741e-27 2.96378e-06)
(2.96695e-06 3.98302e-07 -8.92951e-29 2.967e-06 2.1356e-27 2.96697e-06)
(2.97051e-06 3.98381e-07 -3.61857e-30 2.97035e-06 -6.29754e-29 2.97042e-06)
(2.97434e-06 3.98528e-07 -5.07667e-29 2.97398e-06 -6.37111e-29 2.97416e-06)
(2.97823e-06 3.9868e-07 2.70275e-28 2.97769e-06 6.39314e-28 2.97796e-06)
(2.98233e-06 3.98877e-07 1.93029e-27 2.98158e-06 1.30008e-27 2.98195e-06)
(2.98661e-06 3.99113e-07 2.01453e-28 2.98567e-06 2.71009e-27 2.98614e-06)
(2.99111e-06 3.99406e-07 -1.38133e-27 2.98999e-06 2.12417e-27 2.99054e-06)
(2.99583e-06 3.99742e-07 3.4011e-28 2.99452e-06 1.04429e-28 2.99517e-06)
(3.00077e-06 4.00128e-07 -2.95547e-27 2.99927e-06 -1.44661e-27 3.00002e-06)
(3.00591e-06 4.00556e-07 2.35676e-28 3.00424e-06 -1.26216e-26 3.00507e-06)
(3.01126e-06 4.01028e-07 -1.3175e-27 3.00942e-06 -1.40167e-26 3.01034e-06)
(3.01678e-06 4.01537e-07 8.9641e-27 3.01477e-06 5.5467e-27 3.01577e-06)
(3.02247e-06 4.02085e-07 -1.43386e-26 3.02029e-06 -1.12822e-26 3.02138e-06)
(3.02825e-06 4.02643e-07 -9.11012e-28 3.02592e-06 1.37897e-26 3.02708e-06)
(3.03417e-06 4.03227e-07 -4.57786e-27 3.03169e-06 1.13532e-26 3.03293e-06)
(3.04022e-06 4.03832e-07 -2.67126e-27 3.03761e-06 4.70222e-27 3.03891e-06)
(3.04645e-06 4.04462e-07 4.20312e-27 3.0437e-06 -3.97077e-26 3.04507e-06)
(3.05287e-06 4.05121e-07 1.62994e-26 3.05e-06 9.65482e-27 3.05143e-06)
(3.05948e-06 4.05807e-07 5.60736e-27 3.05649e-06 -9.08025e-27 3.05799e-06)
(3.06633e-06 4.0651e-07 1.19552e-26 3.06324e-06 -2.33386e-26 3.06479e-06)
(3.07355e-06 4.07235e-07 1.6879e-27 3.07035e-06 -3.7802e-26 3.07195e-06)
(3.0814e-06 4.08021e-07 -3.11653e-26 3.0781e-06 -3.04055e-26 3.07975e-06)
(3.09013e-06 4.08884e-07 1.04301e-26 3.08673e-06 -3.1269e-26 3.08843e-06)
(3.09989e-06 4.0986e-07 -9.0951e-27 3.09641e-06 -4.7057e-26 3.09815e-06)
(3.10998e-06 4.10849e-07 -1.28029e-26 3.10643e-06 2.14192e-26 3.10821e-06)
(3.11969e-06 4.11758e-07 -1.22038e-27 3.1161e-06 1.85858e-26 3.1179e-06)
(3.12894e-06 4.1257e-07 2.30197e-30 3.1253e-06 1.08404e-26 3.12712e-06)
(3.13762e-06 4.13265e-07 1.18619e-30 3.13395e-06 3.17991e-27 3.13579e-06)
(3.14576e-06 4.13845e-07 1.23297e-30 3.14206e-06 3.15403e-27 3.14392e-06)
(3.15335e-06 4.14327e-07 2.82933e-27 3.14962e-06 -8.67612e-26 3.15149e-06)
(3.16012e-06 4.14656e-07 -2.81176e-26 3.15637e-06 4.2842e-26 3.15825e-06)
(3.16622e-06 4.14869e-07 8.26155e-28 3.16244e-06 7.31297e-26 3.16433e-06)
(3.17137e-06 4.14915e-07 -4.79356e-27 3.16756e-06 1.68203e-27 3.16947e-06)
(3.17584e-06 4.14855e-07 6.98516e-26 3.17201e-06 8.78146e-26 3.17393e-06)
(3.17927e-06 4.1463e-07 -1.24941e-26 3.17543e-06 1.41338e-25 3.17736e-06)
(3.18196e-06 4.14313e-07 -9.16349e-26 3.17811e-06 -2.34586e-26 3.18004e-06)
(3.18377e-06 4.13875e-07 -8.81892e-27 3.17991e-06 3.36371e-27 3.18184e-06)
(3.18476e-06 4.13345e-07 -1.87218e-27 3.18089e-06 -3.07471e-27 3.18283e-06)
(3.18513e-06 4.12782e-07 2.49782e-27 3.18128e-06 2.80686e-26 3.18321e-06)
(3.18476e-06 4.12173e-07 -6.56159e-26 3.18093e-06 -7.68426e-26 3.18285e-06)
(3.18367e-06 4.11522e-07 -6.5508e-27 3.17988e-06 -1.67429e-25 3.18178e-06)
(3.18179e-06 4.10841e-07 -4.71594e-27 3.17806e-06 1.57346e-27 3.17993e-06)
(3.17897e-06 4.10094e-07 6.78563e-26 3.17534e-06 7.6934e-26 3.17716e-06)
(3.1754e-06 4.09353e-07 3.16705e-26 3.17189e-06 -5.42537e-26 3.17365e-06)
(3.17048e-06 4.08502e-07 4.30188e-27 3.16714e-06 -1.3471e-25 3.16881e-06)
(3.16444e-06 4.0757e-07 -2.97982e-26 3.1613e-06 5.15705e-26 3.16287e-06)
(3.15794e-06 4.06756e-07 2.16034e-26 3.15504e-06 -5.0923e-26 3.15648e-06)
(3.15003e-06 4.0579e-07 7.70259e-26 3.14741e-06 1.5117e-25 3.14872e-06)