/*--------------------------------*- C++ -*----------------------------------*\
| =========                 |                                                 |
| \\      /  F ield         | OpenFOAM: The Open Source CFD Toolbox           |
|  \\    /   O peration     | Version:  v2012                                 |
|   \\  /    A nd           | Website:  www.openfoam.com                      |
|    \\/     M anipulation  |                                                 |
\*---------------------------------------------------------------------------*/
FoamFile
{
    version     2.0;
    format      ascii;
    class       volSymmTensorField;
    location    "20000";
    object      turbulenceProperties:R;
}
// * * * * * * * * * * * * * * * * * * * * * * * * * * * * * * * * * * * * * //

dimensions      [0 2 -2 0 0 0 0];


internalField   nonuniform List<symmTensor> 
14751
(
(8.0637e-07 8.68427e-09 -0 8.06364e-07 -0 8.06366e-07)
(8.06657e-07 8.76923e-09 -2.42235e-33 8.0665e-07 -1.07737e-28 8.06654e-07)
(8.07116e-07 8.88466e-09 1.82102e-32 8.07111e-07 -3.29043e-30 8.07113e-07)
(8.06188e-07 8.94356e-09 -1.17162e-31 8.06186e-07 2.06663e-28 8.06186e-07)
(8.04574e-07 8.99749e-09 7.52152e-31 8.04574e-07 5.71586e-31 8.04573e-07)
(8.02312e-07 9.01978e-09 -2.71244e-31 8.02315e-07 -2.70006e-31 8.02313e-07)
(7.99131e-07 9.01748e-09 -8.68605e-33 7.99136e-07 -3.56629e-28 7.99133e-07)
(7.9521e-07 8.99205e-09 -3.38245e-31 7.95217e-07 -3.49021e-28 7.95213e-07)
(7.90436e-07 8.93854e-09 -2.80672e-32 7.90445e-07 3.26617e-28 7.90439e-07)
(7.85082e-07 8.86552e-09 -3.20064e-32 7.85092e-07 -2.91902e-31 7.85086e-07)
(7.79221e-07 8.77171e-09 3.26257e-31 7.79233e-07 -2.94512e-28 7.79226e-07)
(7.72927e-07 8.66075e-09 2.91463e-32 7.72941e-07 5.83024e-38 7.72932e-07)
(7.66293e-07 8.53422e-09 1.21529e-32 7.66308e-07 -2.65077e-28 7.66299e-07)
(7.59353e-07 8.39406e-09 -1.47378e-31 7.59368e-07 1.12283e-29 7.59359e-07)
(7.52212e-07 8.24327e-09 -1.65496e-31 7.52228e-07 -6.41558e-31 7.52219e-07)
(7.44959e-07 8.0845e-09 -1.11708e-32 7.44975e-07 -6.94129e-30 7.44966e-07)
(7.37692e-07 7.92067e-09 -0 7.37709e-07 -0 7.37699e-07)
(7.30479e-07 7.75375e-09 4.26543e-33 7.30495e-07 5.61552e-30 7.30486e-07)
(7.23399e-07 7.58628e-09 -7.10047e-32 7.23415e-07 1.68158e-28 7.23406e-07)
(7.16506e-07 7.42003e-09 -4.50395e-33 7.16521e-07 9.79641e-30 7.16513e-07)
(7.09859e-07 7.2567e-09 6.34295e-34 7.09875e-07 -6.73147e-31 7.09866e-07)
(7.03473e-07 7.09718e-09 3.12977e-32 7.03488e-07 -8.89536e-29 7.0348e-07)
(6.97406e-07 6.94279e-09 1.51997e-33 6.97421e-07 8.64733e-30 6.97413e-07)
(6.91627e-07 6.79355e-09 4.86742e-37 6.9164e-07 3.8381e-30 6.91633e-07)
(6.86214e-07 6.65107e-09 -1.70107e-34 6.86227e-07 -3.85355e-30 6.8622e-07)
(6.81121e-07 6.51455e-09 3.58147e-33 6.81133e-07 3.48698e-30 6.81126e-07)
(6.76381e-07 6.38513e-09 -3.36997e-32 6.76393e-07 -5.83338e-29 6.76386e-07)
(6.71961e-07 6.26192e-09 2.07072e-34 6.71972e-07 -4.9719e-29 6.71966e-07)
(6.67882e-07 6.14579e-09 7.78055e-36 6.67892e-07 -5.1478e-29 6.67886e-07)
(6.64137e-07 6.03636e-09 7.88977e-34 6.64146e-07 3.19289e-30 6.64141e-07)
(6.60712e-07 5.93342e-09 2.64227e-32 6.60721e-07 -2.49789e-29 6.60716e-07)
(6.57606e-07 5.83705e-09 -2.54048e-32 6.57614e-07 1.54188e-30 6.5761e-07)
(6.54821e-07 5.747e-09 -8.29061e-34 6.54829e-07 -1.55951e-30 6.54825e-07)
(6.52374e-07 5.66343e-09 -2.62959e-32 6.52382e-07 2.52547e-29 6.52378e-07)
(6.50278e-07 5.58605e-09 1.10801e-32 6.50285e-07 1.6329e-30 6.50281e-07)
(6.4848e-07 5.51426e-09 9.94831e-34 6.48487e-07 -2.96226e-29 6.48483e-07)
(6.4689e-07 5.44746e-09 2.15686e-32 6.46896e-07 2.79042e-29 6.46893e-07)
(6.45476e-07 5.38487e-09 -4.03526e-31 6.45481e-07 6.30828e-31 6.45479e-07)
(6.44225e-07 5.32633e-09 -2.12245e-32 6.44231e-07 9.24645e-31 6.44228e-07)
(6.43132e-07 5.27195e-09 4.98994e-35 6.43136e-07 -1.89285e-30 6.43134e-07)
(6.42188e-07 5.22175e-09 -7.43332e-35 6.42192e-07 1.77618e-29 6.4219e-07)
(6.41376e-07 5.17499e-09 2.7624e-36 6.4138e-07 -1.00977e-30 6.41378e-07)
(6.40673e-07 5.13137e-09 4.57125e-35 6.40676e-07 -1.72822e-29 6.40675e-07)
(6.40084e-07 5.09082e-09 -7.31864e-33 6.40087e-07 8.47541e-30 6.40085e-07)
(6.39584e-07 5.05303e-09 9.47361e-32 6.39587e-07 -8.22783e-30 6.39585e-07)
(6.39187e-07 5.01847e-09 1.52493e-32 6.3919e-07 -1.02444e-29 6.39189e-07)
(6.38894e-07 4.98716e-09 -9.34053e-32 6.38896e-07 -4.65282e-30 6.38895e-07)
(6.38707e-07 4.95915e-09 -1.68284e-32 6.38709e-07 -3.33939e-31 6.38708e-07)
(6.38628e-07 4.93449e-09 1.01665e-31 6.38629e-07 9.50452e-32 6.38629e-07)
(6.38672e-07 4.91339e-09 -8.32283e-32 6.38673e-07 -9.95436e-32 6.38673e-07)
(6.38851e-07 4.89607e-09 -9.31054e-33 6.38852e-07 1.56995e-30 6.38851e-07)
(6.392e-07 4.88286e-09 6.66176e-35 6.392e-07 -6.56198e-30 6.392e-07)
(6.39763e-07 4.87412e-09 1.9204e-35 6.39763e-07 1.43989e-41 6.39763e-07)
(6.40569e-07 4.8702e-09 -9.14889e-35 6.40569e-07 -1.37197e-40 6.40569e-07)
(6.41624e-07 4.87085e-09 4.43482e-34 6.41624e-07 -2.72834e-33 6.41624e-07)
(6.42833e-07 4.87543e-09 1.22486e-32 6.42832e-07 -9.86794e-31 6.42833e-07)
(6.44189e-07 4.88394e-09 -7.91415e-32 6.44188e-07 8.56095e-31 6.44189e-07)
(6.45697e-07 4.89657e-09 -1.0361e-31 6.45695e-07 1.99183e-30 6.45696e-07)
(6.47351e-07 4.91314e-09 -1.3652e-32 6.47349e-07 -2.12108e-30 6.4735e-07)
(6.49152e-07 4.93348e-09 5.91112e-34 6.49149e-07 3.5934e-29 6.49151e-07)
(6.51086e-07 4.95732e-09 1.18681e-31 6.51083e-07 5.93264e-37 6.51085e-07)
(6.53164e-07 4.98487e-09 -7.47055e-31 6.5316e-07 -1.27488e-30 6.53162e-07)
(6.55384e-07 5.01596e-09 -1.17734e-31 6.55381e-07 5.0346e-30 6.55383e-07)
(6.57756e-07 5.05113e-09 -1.04003e-34 6.57752e-07 -8.14279e-29 6.57754e-07)
(6.60272e-07 5.09012e-09 3.33426e-32 6.60268e-07 -5.16414e-30 6.6027e-07)
(6.6292e-07 5.13248e-09 -1.91747e-31 6.62916e-07 -3.58362e-31 6.62918e-07)
(6.6569e-07 5.17789e-09 -3.53013e-32 6.65685e-07 -9.41964e-29 6.65687e-07)
(6.68576e-07 5.22644e-09 9.24875e-34 6.68571e-07 9.64206e-29 6.68573e-07)
(6.71576e-07 5.27807e-09 1.78461e-32 6.71571e-07 -1.04828e-28 6.71573e-07)
(6.74669e-07 5.33216e-09 -1.13279e-31 6.74664e-07 1.15069e-29 6.74667e-07)
(6.77849e-07 5.38851e-09 7.76456e-32 6.77844e-07 -1.94246e-28 6.77847e-07)
(6.81109e-07 5.4471e-09 3.47814e-32 6.81104e-07 8.66685e-34 6.81107e-07)
(6.84449e-07 5.50773e-09 -8.00062e-32 6.84444e-07 -2.46846e-31 6.84447e-07)
(6.8785e-07 5.57028e-09 -1.43056e-31 6.87844e-07 -2.15194e-31 6.87847e-07)
(6.91323e-07 5.63464e-09 8.56456e-32 6.91317e-07 1.34674e-29 6.9132e-07)
(6.94856e-07 5.70126e-09 1.97563e-32 6.9485e-07 2.26357e-28 6.94853e-07)
(6.98477e-07 5.77044e-09 -3.16717e-35 6.9847e-07 1.36577e-29 6.98473e-07)
(7.02157e-07 5.84199e-09 -7.57387e-34 7.0215e-07 2.05938e-28 7.02153e-07)
(7.05923e-07 5.91641e-09 2.05141e-33 7.05917e-07 2.22437e-28 7.0592e-07)
(7.09744e-07 5.99315e-09 3.47411e-32 7.09737e-07 8.09051e-32 7.0974e-07)
(7.13677e-07 6.07351e-09 -2.22777e-31 7.1367e-07 -4.55841e-28 7.13673e-07)
(7.17717e-07 6.1575e-09 -4.00654e-32 7.1771e-07 -1.3255e-36 7.17713e-07)
(7.21917e-07 6.2471e-09 -6.56209e-33 7.21909e-07 1.46406e-29 7.21913e-07)
(7.26298e-07 6.34191e-09 7.41715e-33 7.26289e-07 -1.46066e-29 7.26293e-07)
(7.30891e-07 6.44354e-09 -7.65003e-34 7.30882e-07 4.71209e-28 7.30887e-07)
(7.35758e-07 6.55334e-09 -1.42804e-33 7.35749e-07 7.44387e-30 7.35753e-07)
(7.40932e-07 6.67169e-09 1.10499e-34 7.40922e-07 4.6917e-28 7.40927e-07)
(7.46459e-07 6.80008e-09 1.24545e-32 7.46448e-07 -4.86132e-28 7.46453e-07)
(7.52346e-07 6.93796e-09 -6.77792e-32 7.52334e-07 1.11304e-29 7.5234e-07)
(7.58479e-07 7.08496e-09 -1.04499e-32 7.58467e-07 -3.77075e-30 7.58473e-07)
(7.6466e-07 7.23975e-09 2.42286e-32 7.64647e-07 -4.81458e-28 7.64653e-07)
(7.70726e-07 7.39875e-09 -1.37216e-31 7.70713e-07 -4.81198e-28 7.7072e-07)
(7.7658e-07 7.56365e-09 -4.41629e-33 7.76567e-07 4.79634e-28 7.76574e-07)
(7.8226e-07 7.73113e-09 -1.71374e-31 7.82247e-07 -2.60596e-31 7.82254e-07)
(7.87487e-07 7.89893e-09 8.21958e-32 7.87473e-07 -2.44153e-28 7.8748e-07)
(7.92453e-07 8.07068e-09 3.27652e-31 7.9244e-07 2.46363e-28 7.92447e-07)
(7.96779e-07 8.23135e-09 4.6571e-32 7.96767e-07 -2.35742e-28 7.96774e-07)
(8.00379e-07 8.37622e-09 -0 8.00368e-07 -0 8.00373e-07)
(8.03226e-07 8.53981e-09 -5.54526e-36 8.03214e-07 -3.51818e-30 8.03221e-07)
(1.14567e-06 4.77594e-08 -2.22392e-29 1.14558e-06 5.87553e-28 1.14562e-06)
(1.1462e-06 4.81359e-08 2.31123e-28 1.14611e-06 5.38953e-28 1.14615e-06)
(1.14733e-06 4.86581e-08 7.33388e-29 1.14727e-06 -2.24521e-27 1.1473e-06)
(1.14635e-06 4.8971e-08 -4.76258e-28 1.14633e-06 -1.0305e-27 1.14634e-06)
(1.14439e-06 4.92452e-08 -4.81477e-29 1.14439e-06 -4.18214e-27 1.14439e-06)
(1.14144e-06 4.93989e-08 -7.65881e-29 1.14147e-06 -7.2913e-30 1.14145e-06)
(1.13701e-06 4.9425e-08 8.62529e-28 1.13707e-06 1.82055e-27 1.13704e-06)
(1.13139e-06 4.93435e-08 1.10534e-27 1.13149e-06 1.69542e-27 1.13144e-06)
(1.12439e-06 4.91265e-08 -8.59007e-28 1.12451e-06 -1.61192e-27 1.12445e-06)
(1.11645e-06 4.88123e-08 -1.38094e-28 1.11659e-06 3.34742e-27 1.11652e-06)
(1.10768e-06 4.83997e-08 9.212e-28 1.10785e-06 4.62744e-27 1.10777e-06)
(1.09821e-06 4.79022e-08 6.31788e-30 1.0984e-06 3.06738e-32 1.09831e-06)
(1.08817e-06 4.73286e-08 9.11148e-28 1.08838e-06 4.08325e-27 1.08827e-06)
(1.07763e-06 4.66854e-08 2.94884e-29 1.07785e-06 3.29296e-30 1.07774e-06)
(1.06676e-06 4.59882e-08 -3.26727e-30 1.06699e-06 2.38646e-27 1.06687e-06)
(1.05568e-06 4.52484e-08 2.05205e-29 1.05592e-06 1.4027e-28 1.0558e-06)
(1.04458e-06 4.44815e-08 2.90087e-30 1.04482e-06 -6.97349e-29 1.0447e-06)
(1.03355e-06 4.36968e-08 1.946e-29 1.03379e-06 2.06843e-27 1.03367e-06)
(1.0227e-06 4.29067e-08 -7.80339e-28 1.02294e-06 -8.96456e-28 1.02282e-06)
(1.01214e-06 4.21205e-08 -7.56008e-29 1.01238e-06 6.28841e-30 1.01226e-06)
(1.00196e-06 4.1347e-08 -2.19895e-29 1.0022e-06 -1.73402e-27 1.00208e-06)
(9.92187e-07 4.05895e-08 4.47715e-28 9.92412e-07 5.17626e-28 9.92301e-07)
(9.82897e-07 3.98561e-08 -1.29997e-29 9.83115e-07 -8.75305e-29 9.83007e-07)
(9.74061e-07 3.91458e-08 -1.97505e-29 9.74271e-07 1.36436e-27 9.74168e-07)
(9.65785e-07 3.84678e-08 1.67107e-29 9.65987e-07 -1.33391e-27 9.65887e-07)
(9.5799e-07 3.78174e-08 -2.88483e-29 9.58183e-07 4.42204e-30 9.58087e-07)
(9.50748e-07 3.72011e-08 3.42818e-28 9.50932e-07 2.9133e-28 9.50841e-07)
(9.43999e-07 3.66146e-08 3.19462e-28 9.44174e-07 2.49545e-28 9.44087e-07)
(9.37763e-07 3.60618e-08 3.70278e-28 9.37929e-07 2.74541e-28 9.37847e-07)
(9.32055e-07 3.55422e-08 -8.76093e-30 9.32211e-07 5.14141e-28 9.32134e-07)
(9.26833e-07 3.50543e-08 1.57812e-28 9.2698e-07 1.4985e-28 9.26907e-07)
(9.22104e-07 3.45986e-08 -1.40638e-30 9.22242e-07 -3.27871e-29 9.22174e-07)
(9.17868e-07 3.41745e-08 1.28248e-29 9.17998e-07 -1.81955e-29 9.17934e-07)
(9.14152e-07 3.3783e-08 -1.50747e-28 9.14274e-07 -6.46596e-28 9.14214e-07)
(9.10983e-07 3.34239e-08 -2.00727e-29 9.11096e-07 1.41259e-30 9.1104e-07)
(9.08274e-07 3.30942e-08 1.67982e-28 9.08379e-07 -1.48001e-28 9.08327e-07)
(9.05891e-07 3.27883e-08 -1.42738e-28 9.05989e-07 -1.60999e-28 9.0594e-07)
(9.03774e-07 3.25028e-08 -7.74649e-30 9.03865e-07 1.53202e-29 9.0382e-07)
(9.01905e-07 3.22368e-08 -3.72288e-30 9.01988e-07 7.58269e-31 9.01947e-07)
(9.00275e-07 3.19908e-08 1.05664e-29 9.00352e-07 -1.54553e-30 9.00314e-07)
(8.98878e-07 3.17649e-08 -7.67508e-29 8.98948e-07 -7.10302e-29 8.98914e-07)
(8.97681e-07 3.15556e-08 -5.24854e-30 8.97745e-07 1.78095e-28 8.97714e-07)
(8.96644e-07 3.13608e-08 7.17319e-29 8.96702e-07 8.54715e-29 8.96674e-07)
(8.95781e-07 3.11806e-08 -3.06818e-29 8.95832e-07 1.41978e-28 8.95807e-07)
(8.95037e-07 3.10128e-08 2.61229e-29 8.95083e-07 2.58197e-28 8.9506e-07)
(8.94454e-07 3.08605e-08 3.55883e-29 8.94493e-07 -6.24556e-29 8.94473e-07)
(8.94023e-07 3.07238e-08 1.98135e-29 8.94057e-07 -3.35963e-29 8.9404e-07)
(8.9376e-07 3.06032e-08 2.03458e-30 8.93787e-07 1.62271e-30 8.93773e-07)
(8.93656e-07 3.04989e-08 -4.87801e-31 8.93677e-07 -2.41012e-31 8.93667e-07)
(8.93739e-07 3.04124e-08 7.68643e-31 8.93754e-07 6.40323e-30 8.93747e-07)
(8.94036e-07 3.03448e-08 -5.6649e-30 8.94044e-07 -5.03724e-30 8.9404e-07)
(8.94586e-07 3.02981e-08 1.62624e-29 8.94588e-07 2.79856e-29 8.94587e-07)
(8.95476e-07 3.02755e-08 1.58028e-30 8.95471e-07 2.95818e-34 8.95473e-07)
(8.96733e-07 3.02781e-08 -1.63041e-33 8.96721e-07 -1.4515e-28 8.96727e-07)
(8.98383e-07 3.03059e-08 -2.39148e-31 8.98364e-07 -9.86961e-30 8.98373e-07)
(9.00273e-07 3.03536e-08 1.6281e-30 9.00248e-07 -8.29209e-31 9.0026e-07)
(9.02382e-07 3.0421e-08 -4.09194e-31 9.02351e-07 -2.38242e-29 9.02366e-07)
(9.04732e-07 3.05084e-08 -3.194e-30 9.04695e-07 4.47121e-29 9.04713e-07)
(9.07302e-07 3.06153e-08 1.13133e-29 9.07258e-07 -2.48233e-29 9.0728e-07)
(9.10092e-07 3.07402e-08 -6.69474e-29 9.10042e-07 -1.4065e-28 9.10066e-07)
(9.13081e-07 3.08813e-08 -9.77634e-30 9.13025e-07 -5.0354e-29 9.13053e-07)
(9.16278e-07 3.104e-08 5.11747e-30 9.16216e-07 8.35135e-28 9.16246e-07)
(9.19694e-07 3.12154e-08 -2.46324e-29 9.19627e-07 8.07209e-28 9.1966e-07)
(9.23343e-07 3.14098e-08 1.35616e-28 9.23271e-07 4.31053e-28 9.23306e-07)
(9.27206e-07 3.16222e-08 2.54526e-29 9.27128e-07 8.47121e-28 9.27166e-07)
(9.31275e-07 3.18494e-08 -2.044e-29 9.31192e-07 -1.7573e-27 9.31233e-07)
(9.3551e-07 3.20896e-08 1.71323e-28 9.35424e-07 3.46699e-28 9.35466e-07)
(9.39925e-07 3.2343e-08 -1.51814e-28 9.39835e-07 -4.16648e-28 9.3988e-07)
(9.44501e-07 3.2609e-08 1.37006e-28 9.44406e-07 5.50217e-28 9.44453e-07)
(9.49216e-07 3.28838e-08 -3.38611e-29 9.49118e-07 -1.21304e-28 9.49166e-07)
(9.54037e-07 3.31665e-08 2.90855e-28 9.53936e-07 1.04178e-27 9.53986e-07)
(9.58972e-07 3.34561e-08 4.53608e-29 9.58868e-07 -2.2762e-27 9.5892e-07)
(9.63994e-07 3.37517e-08 3.6392e-31 9.63887e-07 1.34729e-28 9.63939e-07)
(9.69102e-07 3.40519e-08 3.53161e-30 9.68992e-07 -4.58973e-27 9.69046e-07)
(9.7429e-07 3.43572e-08 3.8707e-29 9.74177e-07 1.56091e-28 9.74233e-07)
(9.79551e-07 3.46682e-08 -2.96032e-28 9.79436e-07 -8.51945e-28 9.79493e-07)
(9.84926e-07 3.49876e-08 -1.91151e-29 9.84808e-07 3.03345e-28 9.84866e-07)
(9.90375e-07 3.53131e-08 -2.53615e-28 9.90253e-07 3.38681e-27 9.90313e-07)
(9.95943e-07 3.56481e-08 -3.68573e-28 9.95817e-07 -1.05556e-27 9.95879e-07)
(1.00156e-06 3.59882e-08 -1.56684e-28 1.00143e-06 -3.06399e-28 1.00149e-06)
(1.00731e-06 3.63412e-08 6.58025e-28 1.00718e-06 -2.7302e-27 1.00725e-06)
(1.01322e-06 3.67072e-08 1.07877e-28 1.01308e-06 3.06813e-28 1.01315e-06)
(1.01935e-06 3.70956e-08 -1.98385e-29 1.01921e-06 -4.96996e-27 1.01928e-06)
(1.02575e-06 3.75066e-08 1.18032e-28 1.0256e-06 -5.02128e-27 1.02567e-06)
(1.03245e-06 3.79466e-08 -6.89671e-28 1.03229e-06 -2.28037e-27 1.03237e-06)
(1.0396e-06 3.84238e-08 -9.05566e-30 1.03943e-06 -7.60552e-29 1.03951e-06)
(1.04721e-06 3.89416e-08 -8.19173e-28 1.04703e-06 -2.2482e-27 1.04712e-06)
(1.05538e-06 3.95058e-08 6.36858e-28 1.0552e-06 2.33918e-27 1.05529e-06)
(1.06413e-06 4.0117e-08 9.3433e-29 1.06394e-06 -5.16568e-27 1.06403e-06)
(1.07327e-06 4.07691e-08 -1.03536e-28 1.07308e-06 3.86269e-29 1.07317e-06)
(1.0825e-06 4.14518e-08 6.69655e-28 1.08231e-06 -2.71109e-27 1.08241e-06)
(1.09156e-06 4.21499e-08 1.00133e-27 1.09136e-06 2.34876e-27 1.09146e-06)
(1.10029e-06 4.28614e-08 -7.02569e-28 1.10009e-06 -2.3964e-27 1.10019e-06)
(1.10876e-06 4.35873e-08 -1.56699e-28 1.10856e-06 -5.01093e-27 1.10866e-06)
(1.11656e-06 4.43045e-08 4.83713e-28 1.11637e-06 6.1663e-27 1.11646e-06)
(1.12402e-06 4.50376e-08 -4.43629e-28 1.12384e-06 -1.21421e-27 1.12393e-06)
(1.13054e-06 4.5726e-08 3.88803e-28 1.13038e-06 1.22324e-27 1.13046e-06)
(1.13606e-06 4.63892e-08 4.99089e-29 1.1359e-06 -9.62462e-30 1.13598e-06)
(1.14051e-06 4.7064e-08 7.06366e-30 1.14036e-06 1.78758e-29 1.14044e-06)
(1.77866e-06 1.45473e-07 -1.00024e-27 1.77822e-06 -1.65084e-27 1.77842e-06)
(1.77888e-06 1.46357e-07 -1.07209e-27 1.77851e-06 2.03496e-27 1.77871e-06)
(1.78162e-06 1.47801e-07 4.14184e-27 1.78138e-06 6.34211e-27 1.7815e-06)
(1.78204e-06 1.4894e-07 1.24646e-27 1.78197e-06 -2.98633e-26 1.78201e-06)
(1.78172e-06 1.50041e-07 9.01506e-27 1.78178e-06 1.19497e-26 1.78176e-06)
(1.78052e-06 1.5099e-07 8.19289e-28 1.78074e-06 -2.40794e-26 1.78064e-06)
(1.77725e-06 1.51621e-07 -2.78127e-27 1.77763e-06 6.97498e-27 1.77745e-06)
(1.77194e-06 1.51946e-07 -3.46178e-27 1.77248e-06 6.88018e-27 1.77222e-06)
(1.76453e-06 1.51947e-07 3.16527e-27 1.76523e-06 -6.47586e-27 1.76489e-06)
(1.7557e-06 1.51699e-07 -7.99664e-27 1.75653e-06 -9.43638e-27 1.75613e-06)
(1.74563e-06 1.51209e-07 -1.22828e-26 1.74659e-06 -3.01471e-27 1.74612e-06)
(1.73445e-06 1.50494e-07 -7.20318e-29 1.73552e-06 -5.14953e-31 1.73499e-06)
(1.72235e-06 1.49578e-07 -1.15913e-26 1.72351e-06 -2.5062e-27 1.72294e-06)
(1.70939e-06 1.48464e-07 -2.61288e-28 1.71062e-06 -2.07937e-28 1.71001e-06)
(1.69581e-06 1.47187e-07 -8.22687e-27 1.6971e-06 -6.94071e-27 1.69647e-06)
(1.68182e-06 1.45776e-07 -8.0517e-28 1.68315e-06 1.75042e-28 1.68249e-06)
(1.66765e-06 1.44269e-07 5.03199e-28 1.669e-06 1.32525e-26 1.66833e-06)
(1.65345e-06 1.42688e-07 -8.45038e-27 1.65482e-06 6.68297e-27 1.65414e-06)
(1.6394e-06 1.41065e-07 2.52236e-27 1.64077e-06 -3.92267e-27 1.64009e-06)
(1.62566e-06 1.39425e-07 -1.1673e-28 1.62702e-06 1.62287e-28 1.62634e-06)
(1.61238e-06 1.37792e-07 8.18364e-27 1.61371e-06 4.5833e-27 1.61305e-06)
(1.59956e-06 1.36173e-07 -1.7709e-27 1.60087e-06 2.22071e-27 1.60022e-06)
(1.58738e-06 1.34593e-07 5.19255e-28 1.58866e-06 -4.94159e-28 1.58802e-06)
(1.57574e-06 1.33045e-07 -7.5157e-27 1.57697e-06 -3.64443e-27 1.57636e-06)
(1.56484e-06 1.31562e-07 7.16595e-27 1.56603e-06 -4.4491e-27 1.56544e-06)
(1.55456e-06 1.30127e-07 2.68744e-28 1.5557e-06 -3.20162e-28 1.55514e-06)
(1.54503e-06 1.28762e-07 -1.26418e-27 1.54612e-06 4.78558e-27 1.54557e-06)
(1.53613e-06 1.27455e-07 -1.11096e-27 1.53717e-06 1.32195e-27 1.53665e-06)
(1.52793e-06 1.2622e-07 -1.2247e-27 1.52892e-06 -2.39002e-27 1.52843e-06)
(1.52046e-06 1.25058e-07 -3.19238e-27 1.52139e-06 -1.6108e-27 1.52093e-06)
(1.51365e-06 1.23966e-07 -7.88066e-28 1.51453e-06 -2.7647e-27 1.51409e-06)
(1.50753e-06 1.22945e-07 1.38902e-28 1.50836e-06 -3.46799e-27 1.50795e-06)
(1.50211e-06 1.21998e-07 -2.47877e-29 1.50289e-06 -8.23683e-29 1.5025e-06)
(1.49745e-06 1.21129e-07 3.61374e-27 1.49818e-06 9.8328e-28 1.49781e-06)
(1.49362e-06 1.20344e-07 9.24587e-29 1.49429e-06 -3.33221e-29 1.49395e-06)
(1.49048e-06 1.19638e-07 9.5697e-28 1.49111e-06 1.4554e-27 1.49079e-06)
(1.48777e-06 1.18982e-07 6.73459e-28 1.48836e-06 -2.50607e-27 1.48807e-06)
(1.48542e-06 1.18371e-07 -4.79222e-29 1.48596e-06 1.94735e-27 1.48569e-06)
(1.48337e-06 1.17801e-07 -3.42478e-30 1.48387e-06 1.99604e-27 1.48362e-06)
(1.48165e-06 1.17274e-07 -1.47761e-29 1.4821e-06 3.79984e-29 1.48187e-06)
(1.48022e-06 1.1679e-07 2.66787e-28 1.48063e-06 -3.20738e-28 1.48043e-06)
(1.47904e-06 1.16342e-07 -7.14778e-28 1.47941e-06 -5.51309e-28 1.47923e-06)
(1.47807e-06 1.15924e-07 -2.587e-28 1.4784e-06 3.48566e-28 1.47823e-06)
(1.4773e-06 1.15537e-07 -5.56696e-28 1.47759e-06 -6.66267e-28 1.47745e-06)
(1.47667e-06 1.15174e-07 -9.00281e-28 1.47693e-06 -4.33019e-28 1.4768e-06)
(1.47625e-06 1.14845e-07 2.00846e-28 1.47647e-06 5.51886e-28 1.47636e-06)
(1.47602e-06 1.14551e-07 -4.69081e-29 1.47619e-06 7.67167e-28 1.47611e-06)
(1.47601e-06 1.14293e-07 -3.20605e-32 1.47614e-06 4.23417e-28 1.47607e-06)
(1.4762e-06 1.14073e-07 5.67699e-30 1.4763e-06 2.03563e-28 1.47625e-06)
(1.47666e-06 1.13896e-07 -2.32566e-29 1.47672e-06 -4.13567e-29 1.47669e-06)
(1.47742e-06 1.13766e-07 1.37402e-29 1.47743e-06 -2.52216e-28 1.47743e-06)
(1.47856e-06 1.1369e-07 -4.98144e-29 1.47853e-06 6.00762e-28 1.47855e-06)
(1.48019e-06 1.13677e-07 -3.0943e-29 1.48013e-06 -1.39058e-32 1.48016e-06)
(1.48239e-06 1.13729e-07 3.3773e-28 1.48228e-06 4.69084e-28 1.48233e-06)
(1.48524e-06 1.13856e-07 4.31495e-29 1.48508e-06 -3.55918e-29 1.48516e-06)
(1.48842e-06 1.14034e-07 -2.251e-30 1.48823e-06 -2.06134e-27 1.48833e-06)
(1.49193e-06 1.14258e-07 4.42821e-29 1.4917e-06 -8.694e-29 1.49181e-06)
(1.49576e-06 1.1453e-07 -7.30654e-29 1.49549e-06 -1.61489e-28 1.49563e-06)
(1.4999e-06 1.14847e-07 -5.1587e-31 1.49959e-06 1.80061e-28 1.49975e-06)
(1.50433e-06 1.15203e-07 1.82046e-28 1.50399e-06 -7.80699e-28 1.50416e-06)
(1.50901e-06 1.15592e-07 2.49234e-28 1.50863e-06 -1.95894e-29 1.50882e-06)
(1.51396e-06 1.16018e-07 -1.34998e-27 1.51354e-06 -2.21181e-27 1.51375e-06)
(1.51918e-06 1.16477e-07 -1.45135e-27 1.51873e-06 2.7666e-27 1.51895e-06)
(1.52468e-06 1.16972e-07 -5.20992e-28 1.52419e-06 7.93666e-27 1.52443e-06)
(1.53042e-06 1.175e-07 -1.78664e-27 1.52991e-06 -8.56725e-27 1.53017e-06)
(1.53638e-06 1.18049e-07 2.75857e-27 1.53584e-06 5.64347e-27 1.53611e-06)
(1.54249e-06 1.18615e-07 -1.79247e-28 1.54192e-06 1.6395e-27 1.54221e-06)
(1.54874e-06 1.19194e-07 5.01708e-28 1.54815e-06 -1.44831e-26 1.54845e-06)
(1.55512e-06 1.19784e-07 -5.708e-28 1.55452e-06 -1.03946e-26 1.55482e-06)
(1.56156e-06 1.20372e-07 2.46236e-28 1.56093e-06 -2.61027e-28 1.56125e-06)
(1.56802e-06 1.20954e-07 -1.47583e-27 1.56737e-06 -8.99869e-27 1.56769e-06)
(1.57446e-06 1.21525e-07 3.09604e-27 1.5738e-06 6.76328e-27 1.57413e-06)
(1.58087e-06 1.22082e-07 -5.34333e-28 1.5802e-06 -7.84382e-28 1.58053e-06)
(1.58721e-06 1.2262e-07 6.4655e-27 1.58652e-06 -1.56676e-27 1.58687e-06)
(1.59348e-06 1.2314e-07 4.18838e-28 1.59278e-06 2.79998e-26 1.59313e-06)
(1.59966e-06 1.2364e-07 1.1924e-27 1.59895e-06 -3.79228e-27 1.59931e-06)
(1.60582e-06 1.24131e-07 3.36923e-28 1.60509e-06 -1.42668e-28 1.60546e-06)
(1.61187e-06 1.24602e-07 -5.37476e-27 1.61112e-06 -1.84645e-26 1.61149e-06)
(1.61788e-06 1.25066e-07 4.85341e-28 1.61712e-06 -4.61894e-27 1.6175e-06)
(1.62376e-06 1.25508e-07 1.49646e-28 1.62297e-06 -9.3465e-29 1.62337e-06)
(1.62967e-06 1.25955e-07 4.64747e-27 1.62887e-06 5.30545e-26 1.62927e-06)
(1.63559e-06 1.26405e-07 -7.16907e-28 1.63476e-06 8.32998e-29 1.63517e-06)
(1.64169e-06 1.26887e-07 5.97277e-27 1.64084e-06 1.35759e-26 1.64127e-06)
(1.64804e-06 1.27406e-07 7.18097e-27 1.64716e-06 1.42364e-26 1.6476e-06)
(1.65473e-06 1.27979e-07 2.92499e-27 1.65382e-06 -9.42023e-27 1.65427e-06)
(1.66197e-06 1.28636e-07 1.01182e-28 1.66103e-06 -1.57281e-28 1.6615e-06)
(1.66986e-06 1.29386e-07 2.55188e-27 1.6689e-06 -9.2568e-27 1.66938e-06)
(1.67855e-06 1.30249e-07 -2.67801e-27 1.67757e-06 9.53411e-27 1.67806e-06)
(1.68814e-06 1.31236e-07 6.92122e-27 1.68713e-06 1.40895e-26 1.68763e-06)
(1.69831e-06 1.32324e-07 3.19799e-28 1.69728e-06 8.17343e-29 1.69779e-06)
(1.70855e-06 1.33478e-07 5.30633e-27 1.70753e-06 5.41887e-26 1.70804e-06)
(1.71841e-06 1.34656e-07 -2.43152e-27 1.71739e-06 9.3608e-27 1.7179e-06)
(1.72772e-06 1.35843e-07 1.54136e-27 1.72671e-06 -9.15539e-27 1.72721e-06)
(1.73672e-06 1.37089e-07 8.85344e-27 1.73575e-06 4.43996e-26 1.73623e-06)
(1.74478e-06 1.38311e-07 -8.64853e-27 1.74385e-06 -9.77552e-27 1.74431e-06)
(1.75269e-06 1.39623e-07 7.53068e-28 1.75183e-06 -4.32046e-27 1.75226e-06)
(1.75962e-06 1.40912e-07 -1.2687e-27 1.75885e-06 4.32742e-27 1.75923e-06)
(1.76576e-06 1.42295e-07 -1.4779e-28 1.76504e-06 -1.24364e-30 1.76539e-06)
(1.77105e-06 1.43658e-07 5.29596e-29 1.7704e-06 6.62035e-29 1.77073e-06)
(2.6231e-06 3.21102e-07 2.50246e-27 2.62186e-06 -1.96718e-26 2.62244e-06)
(2.62111e-06 3.2253e-07 8.1626e-28 2.62027e-06 2.48572e-26 2.62072e-06)
(2.62486e-06 3.25411e-07 -1.28406e-26 2.6244e-06 -3.88628e-26 2.62462e-06)
(2.62712e-06 3.28151e-07 5.51763e-26 2.62718e-06 5.59723e-27 2.62716e-06)
(2.62967e-06 3.30989e-07 -2.12488e-26 2.63018e-06 3.40208e-26 2.62993e-06)
(2.63231e-06 3.33864e-07 5.40423e-26 2.63335e-06 -5.63058e-26 2.63284e-06)
(2.63295e-06 3.36281e-07 2.54774e-27 2.6345e-06 -1.47424e-26 2.63374e-06)
(2.63143e-06 3.3828e-07 8.02727e-30 2.6335e-06 -1.51742e-26 2.63247e-06)
(2.62641e-06 3.39503e-07 -1.10904e-27 2.62897e-06 1.459e-26 2.6277e-06)
(2.61969e-06 3.40327e-07 2.04939e-26 2.62271e-06 -2.92335e-26 2.62122e-06)
(2.61163e-06 3.40776e-07 2.27288e-26 2.61506e-06 -1.26131e-25 2.61336e-06)
(2.60232e-06 3.4086e-07 1.15946e-28 2.60611e-06 1.10603e-30 2.60423e-06)
(2.59196e-06 3.40603e-07 2.12808e-26 2.59606e-06 -3.70977e-26 2.59402e-06)
(2.58053e-06 3.39996e-07 1.15324e-28 2.58489e-06 -1.08783e-27 2.58272e-06)
(2.56834e-06 3.39077e-07 2.09016e-26 2.57289e-06 -2.08133e-26 2.57063e-06)
(2.55557e-06 3.37899e-07 2.45947e-27 2.56028e-06 6.25028e-26 2.55793e-06)
(2.54253e-06 3.3652e-07 -5.29532e-26 2.54733e-06 -2.79655e-26 2.54494e-06)
(2.52936e-06 3.34967e-07 -3.46596e-26 2.53422e-06 -4.43901e-26 2.5318e-06)
(2.51629e-06 3.33304e-07 7.53631e-28 2.52116e-06 -4.37938e-26 2.51873e-06)
(2.50351e-06 3.31563e-07 -7.55989e-28 2.50834e-06 5.58606e-29 2.50593e-06)
(2.49117e-06 3.29794e-07 -1.93414e-26 2.49594e-06 1.80823e-26 2.49356e-06)
(2.47928e-06 3.27997e-07 -2.08953e-27 2.48396e-06 -5.26897e-27 2.48162e-06)
(2.46804e-06 3.26226e-07 8.27616e-28 2.47261e-06 -5.29814e-28 2.47033e-06)
(2.45733e-06 3.24453e-07 1.66453e-26 2.46176e-06 -1.33612e-26 2.45955e-06)
(2.44742e-06 3.22749e-07 3.11291e-26 2.4517e-06 3.01392e-26 2.44956e-06)
(2.43812e-06 3.21077e-07 2.36699e-27 2.44223e-06 4.64728e-28 2.44018e-06)
(2.42961e-06 3.19488e-07 -2.24787e-26 2.43355e-06 -2.86734e-26 2.43158e-06)
(2.42175e-06 3.17951e-07 -2.27285e-27 2.42551e-06 -2.62373e-27 2.42363e-06)
(2.41465e-06 3.16493e-07 2.30684e-26 2.41822e-06 4.41704e-27 2.41644e-06)
(2.40834e-06 3.1513e-07 8.55708e-27 2.41172e-06 -4.72237e-27 2.41003e-06)
(2.40275e-06 3.1385e-07 2.20107e-26 2.40594e-06 5.08257e-27 2.40435e-06)
(2.39791e-06 3.12657e-07 2.31204e-26 2.40091e-06 -8.34517e-27 2.39941e-06)
(2.39387e-06 3.11558e-07 1.34733e-27 2.39668e-06 1.33015e-28 2.39527e-06)
(2.39074e-06 3.10567e-07 -8.14003e-27 2.39335e-06 6.75226e-27 2.39205e-06)
(2.38868e-06 3.09714e-07 -1.20941e-28 2.39111e-06 8.19965e-27 2.38989e-06)
(2.38754e-06 3.08992e-07 -4.26938e-27 2.38979e-06 1.6705e-27 2.38867e-06)
(2.38681e-06 3.08331e-07 1.10382e-26 2.38888e-06 5.37697e-27 2.38785e-06)
(2.38637e-06 3.0771e-07 -1.02621e-26 2.38828e-06 -3.91734e-27 2.38733e-06)
(2.38621e-06 3.07126e-07 -1.10315e-26 2.38795e-06 -4.45888e-27 2.38708e-06)
(2.3863e-06 3.06587e-07 -2.79952e-28 2.38789e-06 6.62029e-31 2.38709e-06)
(2.38664e-06 3.06087e-07 -3.80674e-28 2.38807e-06 8.37168e-28 2.38735e-06)
(2.38717e-06 3.05622e-07 2.18281e-27 2.38844e-06 -2.04042e-27 2.38781e-06)
(2.38785e-06 3.0518e-07 1.56224e-28 2.38896e-06 -6.33846e-27 2.38841e-06)
(2.38867e-06 3.04765e-07 1.50667e-27 2.38963e-06 1.57031e-27 2.38915e-06)
(2.38956e-06 3.04366e-07 2.14929e-27 2.39037e-06 -2.78848e-27 2.38997e-06)
(2.39059e-06 3.03999e-07 -8.02735e-28 2.39125e-06 6.0639e-28 2.39092e-06)
(2.39175e-06 3.03665e-07 -2.4359e-27 2.39226e-06 -1.29063e-27 2.39201e-06)
(2.39309e-06 3.03371e-07 -1.45832e-27 2.39345e-06 1.01425e-27 2.39327e-06)
(2.39458e-06 3.03116e-07 -6.73772e-28 2.39478e-06 -3.89294e-28 2.39468e-06)
(2.39631e-06 3.02917e-07 7.50803e-29 2.39637e-06 -3.01736e-29 2.39634e-06)
(2.39834e-06 3.02775e-07 7.1057e-28 2.39824e-06 -4.95507e-28 2.39829e-06)
(2.4008e-06 3.02715e-07 -1.24046e-27 2.40054e-06 -3.35214e-27 2.40067e-06)
(2.40367e-06 3.02708e-07 1.05317e-29 2.40325e-06 -2.32733e-27 2.40346e-06)
(2.40729e-06 3.02807e-07 -9.77505e-28 2.4067e-06 6.19651e-27 2.40699e-06)
(2.41187e-06 3.03056e-07 -3.05805e-28 2.41113e-06 -4.6555e-27 2.4115e-06)
(2.41682e-06 3.03374e-07 4.92814e-27 2.41593e-06 9.65916e-27 2.41637e-06)
(2.42209e-06 3.03748e-07 4.11725e-28 2.42105e-06 9.7742e-27 2.42157e-06)
(2.42767e-06 3.04181e-07 3.04681e-28 2.42648e-06 -1.35718e-28 2.42707e-06)
(2.43353e-06 3.04661e-07 -2.52003e-28 2.4322e-06 -9.846e-29 2.43287e-06)
(2.43966e-06 3.05184e-07 -2.23995e-29 2.4382e-06 -9.0313e-27 2.43893e-06)
(2.44597e-06 3.05732e-07 -3.72975e-28 2.44439e-06 -6.35542e-28 2.44518e-06)
(2.4525e-06 3.06308e-07 4.00281e-27 2.45079e-06 -7.81724e-27 2.45165e-06)
(2.45921e-06 3.06905e-07 -5.09454e-27 2.45738e-06 5.58229e-27 2.45829e-06)
(2.46607e-06 3.07522e-07 -1.27305e-26 2.46414e-06 -1.58516e-26 2.46511e-06)
(2.47306e-06 3.08147e-07 1.45796e-26 2.47103e-06 -2.29448e-26 2.47205e-06)
(2.48011e-06 3.08766e-07 -6.77269e-27 2.47799e-06 1.74333e-26 2.47905e-06)
(2.48711e-06 3.09362e-07 -1.99304e-27 2.48491e-06 2.34726e-26 2.48601e-06)
(2.49404e-06 3.09924e-07 1.92134e-26 2.49177e-06 2.96217e-26 2.49291e-06)
(2.50086e-06 3.10446e-07 2.26255e-26 2.49852e-06 -3.71055e-26 2.4997e-06)
(2.50746e-06 3.10908e-07 -7.45127e-29 2.50506e-06 2.98243e-27 2.50626e-06)
(2.51375e-06 3.11296e-07 2.21563e-26 2.51131e-06 1.2503e-26 2.51254e-06)
(2.51971e-06 3.11596e-07 -7.09774e-27 2.51722e-06 8.41164e-26 2.51847e-06)
(2.52528e-06 3.11806e-07 1.51522e-28 2.52275e-06 5.27543e-28 2.52402e-06)
(2.53039e-06 3.1191e-07 9.76616e-27 2.52782e-06 7.34833e-27 2.52911e-06)
(2.53503e-06 3.11919e-07 -4.28403e-26 2.53243e-06 -5.84437e-26 2.53374e-06)
(2.53917e-06 3.11818e-07 -4.77303e-27 2.53654e-06 8.89608e-27 2.53786e-06)
(2.54289e-06 3.11635e-07 -2.05297e-27 2.54022e-06 5.78506e-26 2.54156e-06)
(2.54605e-06 3.11337e-07 1.68655e-26 2.54334e-06 -2.69349e-26 2.5447e-06)
(2.54881e-06 3.10971e-07 1.93508e-27 2.54606e-06 1.43755e-26 2.54744e-06)
(2.55096e-06 3.1049e-07 5.52592e-27 2.54817e-06 -1.43697e-27 2.54957e-06)
(2.55284e-06 3.09974e-07 -5.97863e-26 2.54999e-06 -3.76588e-26 2.55142e-06)
(2.55433e-06 3.09397e-07 -3.57929e-27 2.55143e-06 -2.60687e-27 2.55288e-06)
(2.55577e-06 3.08833e-07 -1.43064e-26 2.5528e-06 4.39389e-26 2.55429e-06)
(2.55722e-06 3.08296e-07 -1.79883e-26 2.55419e-06 4.38341e-26 2.55571e-06)
(2.55887e-06 3.07826e-07 -1.7474e-27 2.55578e-06 2.27215e-26 2.55733e-06)
(2.56108e-06 3.07484e-07 1.34031e-28 2.55793e-06 1.3436e-25 2.55951e-06)
(2.56399e-06 3.07302e-07 -1.25084e-28 2.56078e-06 -1.14798e-25 2.56239e-06)
(2.56791e-06 3.07327e-07 1.68016e-27 2.56464e-06 -2.1491e-26 2.56628e-06)
(2.57304e-06 3.07598e-07 -1.71124e-26 2.56974e-06 -9.09931e-26 2.5714e-06)
(2.57905e-06 3.08086e-07 3.23254e-27 2.57574e-06 -3.02037e-28 2.5774e-06)
(2.58508e-06 3.08707e-07 -6.39379e-26 2.5818e-06 9.256e-26 2.58344e-06)
(2.5904e-06 3.09371e-07 -4.87186e-27 2.58719e-06 1.12877e-25 2.58879e-06)
(2.59487e-06 3.10039e-07 4.63436e-27 2.59176e-06 1.97936e-26 2.59332e-06)
(2.5991e-06 3.10889e-07 -6.82797e-26 2.59613e-06 -1.51688e-25 2.59761e-06)
(2.60221e-06 3.11726e-07 1.42515e-26 2.59942e-06 -4.95894e-26 2.60081e-06)