/*--------------------------------*- C++ -*----------------------------------*\
| =========                 |                                                 |
| \\      /  F ield         | OpenFOAM: The Open Source CFD Toolbox           |
|  \\    /   O peration     | Version:  v2012                                 |
|   \\  /    A nd           | Website:  www.openfoam.com                      |
|    \\/     M anipulation  |                                                 |
\*---------------------------------------------------------------------------*/
FoamFile
{
    version     2.0;
    format      ascii;
    class       volSymmTensorField;
    location    "20000";
    object      turbulenceProperties:R;
}
// * * * * * * * * * * * * * * * * * * * * * * * * * * * * * * * * * * * * * //

dimensions      [0 2 -2 0 0 0 0];


internalField   nonuniform List<symmTensor> 
14751
(
(1.05513e-06 1.32713e-08 7.61304e-32 1.05513e-06 -7.4539e-29 1.05513e-06)
(1.05223e-06 1.32754e-08 -2.13789e-33 1.05222e-06 -5.34491e-40 1.05223e-06)
(1.05023e-06 1.33342e-08 1.21219e-32 1.05023e-06 -1.3614e-28 1.05023e-06)
(1.04675e-06 1.33217e-08 -1.15509e-32 1.04675e-06 -4.26978e-30 1.04675e-06)
(1.04274e-06 1.33117e-08 8.32919e-32 1.04274e-06 2.53453e-28 1.04274e-06)
(1.03804e-06 1.3263e-08 -6.18857e-31 1.03804e-06 5.69165e-30 1.03804e-06)
(1.03246e-06 1.31896e-08 -6.73159e-32 1.03247e-06 1.92406e-30 1.03246e-06)
(1.02642e-06 1.30961e-08 4.81103e-33 1.02643e-06 -2.04117e-32 1.02643e-06)
(1.01988e-06 1.29789e-08 7.08295e-35 1.01989e-06 -2.32563e-28 1.01989e-06)
(1.01299e-06 1.28438e-08 4.65347e-33 1.013e-06 1.33671e-29 1.01299e-06)
(1.00587e-06 1.26935e-08 9.48274e-32 1.00589e-06 2.0084e-33 1.00588e-06)
(9.98717e-07 1.25314e-08 -1.14956e-30 9.98737e-07 -6.9829e-31 9.98726e-07)
(9.9165e-07 1.23595e-08 -9.69138e-32 9.91671e-07 2.93719e-36 9.91659e-07)
(9.8489e-07 1.21835e-08 -5.80722e-32 9.84911e-07 -5.99136e-32 9.84899e-07)
(9.78463e-07 1.20045e-08 1.04049e-30 9.78484e-07 1.40359e-28 9.78472e-07)
(9.7201e-07 1.182e-08 6.15844e-31 9.72031e-07 1.9661e-29 9.72019e-07)
(9.65636e-07 1.16332e-08 1.7986e-32 9.65658e-07 -1.42218e-28 9.65646e-07)
(9.59283e-07 1.14435e-08 -1.66292e-32 9.59304e-07 -3.28095e-29 9.59293e-07)
(9.53076e-07 1.12547e-08 4.84489e-31 9.53098e-07 3.31131e-29 9.53086e-07)
(9.4701e-07 1.10672e-08 5.34872e-31 9.47031e-07 2.32429e-31 9.47019e-07)
(9.4117e-07 1.08841e-08 1.11319e-33 9.4119e-07 1.41182e-29 9.41179e-07)
(9.35571e-07 1.0705e-08 5.04085e-31 9.3559e-07 -1.39912e-29 9.35579e-07)
(9.30224e-07 1.0531e-08 1.17684e-32 9.30243e-07 4.00467e-32 9.30233e-07)
(9.25138e-07 1.03631e-08 1.47475e-32 9.25156e-07 -3.70891e-32 9.25146e-07)
(9.20365e-07 1.02028e-08 3.34898e-32 9.20382e-07 3.72045e-32 9.20373e-07)
(9.15879e-07 1.00489e-08 -9.15875e-31 9.15895e-07 -3.66669e-31 9.15886e-07)
(9.11672e-07 9.90166e-09 -3.59027e-32 9.11688e-07 8.25913e-29 9.1168e-07)
(9.07753e-07 9.76129e-09 -2.22096e-31 9.07768e-07 1.04393e-28 9.0776e-07)
(9.04113e-07 9.62745e-09 -1.12782e-32 9.04127e-07 3.41096e-37 9.0412e-07)
(9.00754e-07 9.50094e-09 1.93639e-35 9.00767e-07 -4.0008e-29 9.0076e-07)
(8.97687e-07 9.38172e-09 2.4929e-35 8.977e-07 -5.15063e-29 8.97693e-07)
(8.94888e-07 9.26963e-09 -2.1295e-35 8.94899e-07 4.60931e-29 8.94893e-07)
(8.92368e-07 9.16467e-09 7.23261e-34 8.92379e-07 -1.4823e-38 8.92373e-07)
(8.90102e-07 9.06653e-09 -7.17096e-33 8.90112e-07 -5.96887e-30 8.90107e-07)
(8.88082e-07 8.97515e-09 3.0423e-32 8.88091e-07 6.05345e-29 8.88087e-07)
(8.86309e-07 8.88999e-09 -4.35447e-31 8.86318e-07 -9.4485e-30 8.86313e-07)
(8.84749e-07 8.81043e-09 3.57026e-31 8.84757e-07 3.32386e-30 8.84753e-07)
(8.83403e-07 8.7371e-09 4.22932e-31 8.8341e-07 2.65276e-29 8.83407e-07)
(8.8227e-07 8.66965e-09 2.53927e-32 8.82277e-07 -2.85617e-37 8.82273e-07)
(8.81344e-07 8.60776e-09 2.24372e-34 8.8135e-07 -1.85098e-39 8.81347e-07)
(8.80591e-07 8.55054e-09 -1.75689e-33 8.80596e-07 -3.7208e-30 8.80593e-07)
(8.80038e-07 8.49906e-09 1.05911e-33 8.80042e-07 3.72109e-30 8.8004e-07)
(8.79685e-07 8.45348e-09 1.91821e-33 8.79689e-07 -1.37818e-29 8.79687e-07)
(8.79512e-07 8.41353e-09 -1.12237e-33 8.79515e-07 -2.00722e-30 8.79513e-07)
(8.79552e-07 8.37991e-09 -8.51488e-34 8.79555e-07 3.22128e-33 8.79553e-07)
(8.79779e-07 8.35152e-09 5.38157e-34 8.79781e-07 3.2197e-33 8.7978e-07)
(8.80186e-07 8.32853e-09 -1.82189e-32 8.80187e-07 -1.74416e-33 8.80187e-07)
(8.80786e-07 8.3109e-09 1.88758e-31 8.80787e-07 4.96279e-30 8.80787e-07)
(8.81573e-07 8.29878e-09 1.84396e-32 8.81574e-07 -1.38234e-38 8.81573e-07)
(8.82547e-07 8.29213e-09 -1.11441e-34 8.82547e-07 4.90066e-34 8.82547e-07)
(8.83694e-07 8.29061e-09 2.88109e-35 8.83693e-07 6.88454e-31 8.83693e-07)
(8.85001e-07 8.29455e-09 2.46202e-34 8.84999e-07 -6.89014e-31 8.85e-07)
(8.86488e-07 8.30385e-09 -4.75262e-35 8.86486e-07 1.05456e-33 8.86487e-07)
(8.88135e-07 8.31831e-09 2.37337e-32 8.88132e-07 1.20596e-29 8.88133e-07)
(8.89955e-07 8.33807e-09 -1.90509e-31 8.89952e-07 -2.51518e-29 8.89953e-07)
(8.91942e-07 8.36308e-09 -2.2401e-32 8.91938e-07 -3.29419e-30 8.9194e-07)
(8.94089e-07 8.39339e-09 -3.62717e-34 8.94085e-07 2.65677e-29 8.94087e-07)
(8.96409e-07 8.42904e-09 -1.98513e-34 8.96404e-07 3.38461e-30 8.96407e-07)
(8.98903e-07 8.46988e-09 2.45381e-35 8.98897e-07 -4.95719e-29 8.989e-07)
(9.01563e-07 8.51645e-09 -1.16274e-31 9.01557e-07 -7.19661e-30 9.0156e-07)
(9.04403e-07 8.56896e-09 5.41341e-31 9.04397e-07 8.55314e-30 9.044e-07)
(9.0741e-07 8.6268e-09 1.6818e-30 9.07403e-07 -5.7197e-30 9.07407e-07)
(9.1057e-07 8.69014e-09 2.39562e-31 9.10563e-07 -2.31597e-32 9.10567e-07)
(9.1387e-07 8.75779e-09 2.97129e-33 9.13863e-07 1.64973e-29 9.13867e-07)
(9.17297e-07 8.82955e-09 7.45966e-32 9.17289e-07 -1.65022e-29 9.17293e-07)
(9.20858e-07 8.90615e-09 -4.86606e-31 9.20849e-07 -4.17208e-31 9.20853e-07)
(9.24544e-07 8.9874e-09 3.45018e-31 9.24536e-07 4.78936e-31 9.2454e-07)
(9.28358e-07 9.07288e-09 7.19001e-32 9.28349e-07 1.44208e-36 9.28353e-07)
(9.32278e-07 9.16228e-09 -8.74559e-33 9.32269e-07 5.448e-32 9.32273e-07)
(9.36305e-07 9.25591e-09 4.29154e-33 9.36295e-07 1.48469e-28 9.363e-07)
(9.40438e-07 9.35365e-09 2.22413e-33 9.40428e-07 5.89236e-38 9.40433e-07)
(9.44672e-07 9.4553e-09 -4.69761e-36 9.44661e-07 -3.88232e-29 9.44667e-07)
(9.48999e-07 9.56099e-09 4.25869e-36 9.48988e-07 3.87153e-29 9.48993e-07)
(9.53412e-07 9.67042e-09 9.81118e-33 9.53401e-07 3.38399e-37 9.53407e-07)
(9.57932e-07 9.78392e-09 -6.06502e-32 9.57921e-07 -7.66491e-32 9.57927e-07)
(9.62566e-07 9.90166e-09 -5.78296e-33 9.62554e-07 -1.21218e-31 9.6256e-07)
(9.67339e-07 1.0024e-08 7.23986e-32 9.67327e-07 7.71363e-32 9.67333e-07)
(9.72293e-07 1.01516e-08 -2.89804e-32 9.7228e-07 2.4599e-31 9.72287e-07)
(9.77493e-07 1.0285e-08 4.29653e-32 9.7748e-07 3.37256e-28 9.77487e-07)
(9.82967e-07 1.04245e-08 3.54798e-32 9.82953e-07 -1.24571e-31 9.8296e-07)
(9.88727e-07 1.05701e-08 -5.49354e-32 9.88713e-07 -8.26714e-32 9.8872e-07)
(9.94574e-07 1.07193e-08 -1.05528e-32 9.9456e-07 -3.45655e-28 9.94567e-07)
(1.00038e-06 1.0872e-08 -5.33419e-33 1.00037e-06 3.47748e-28 1.00037e-06)
(1.00609e-06 1.10268e-08 2.09341e-32 1.00608e-06 -3.49538e-28 1.00609e-06)
(1.0117e-06 1.11841e-08 -1.04988e-32 1.01169e-06 1.28143e-31 1.01169e-06)
(1.01717e-06 1.13438e-08 -5.37579e-33 1.01715e-06 -1.71993e-37 1.01716e-06)
(1.02248e-06 1.15055e-08 -0 1.02247e-06 -0 1.02247e-06)
(1.02758e-06 1.16682e-08 -7.41936e-34 1.02757e-06 -3.51295e-28 1.02757e-06)
(1.03246e-06 1.18318e-08 -1.74403e-31 1.03245e-06 -3.50446e-28 1.03245e-06)
(1.03704e-06 1.1995e-08 1.09713e-30 1.03703e-06 1.35429e-30 1.03703e-06)
(1.04127e-06 1.21564e-08 1.69539e-31 1.04126e-06 1.08374e-29 1.04127e-06)
(1.04503e-06 1.23136e-08 -3.12651e-35 1.04502e-06 -1.07929e-29 1.04503e-06)
(1.04829e-06 1.24675e-08 1.99672e-33 1.04827e-06 1.35474e-30 1.04828e-06)
(1.05098e-06 1.26126e-08 -6.3171e-32 1.05097e-06 -1.49899e-30 1.05097e-06)
(1.05291e-06 1.27472e-08 2.64899e-32 1.0529e-06 -3.42169e-28 1.05291e-06)
(1.0543e-06 1.28739e-08 3.95057e-32 1.05429e-06 1.0314e-29 1.05429e-06)
(1.0548e-06 1.29776e-08 -2.9928e-31 1.05479e-06 -3.20464e-28 1.05479e-06)
(1.0548e-06 1.30626e-08 -1.14054e-31 1.05479e-06 -1.43301e-32 1.05479e-06)
(1.05454e-06 1.31762e-08 6.00054e-31 1.05453e-06 6.25584e-31 1.05454e-06)
(1.56167e-06 7.61447e-08 2.22804e-28 1.56165e-06 1.20297e-27 1.56166e-06)
(1.55673e-06 7.60739e-08 -1.68346e-29 1.55671e-06 2.43644e-29 1.55672e-06)
(1.55384e-06 7.63034e-08 4.36269e-28 1.55385e-06 8.02446e-28 1.55384e-06)
(1.54861e-06 7.62716e-08 1.17537e-28 1.54867e-06 3.01128e-27 1.54864e-06)
(1.54268e-06 7.62315e-08 -8.701e-28 1.54277e-06 -1.53096e-27 1.54273e-06)
(1.53567e-06 7.60521e-08 -8.2241e-29 1.5358e-06 8.00012e-29 1.53573e-06)
(1.5272e-06 7.57395e-08 -6.43065e-30 1.52736e-06 6.70882e-31 1.52728e-06)
(1.51798e-06 7.53333e-08 -6.60248e-29 1.51817e-06 3.07327e-31 1.51807e-06)
(1.50789e-06 7.48129e-08 9.16793e-28 1.50811e-06 -3.83667e-27 1.508e-06)
(1.49719e-06 7.4204e-08 2.45715e-29 1.49744e-06 1.51909e-28 1.49731e-06)
(1.48611e-06 7.35201e-08 -5.55788e-30 1.48638e-06 4.06941e-27 1.48625e-06)
(1.47493e-06 7.27802e-08 5.62095e-30 1.47523e-06 4.10756e-27 1.47508e-06)
(1.46389e-06 7.19967e-08 8.37915e-31 1.46419e-06 1.41489e-29 1.46404e-06)
(1.45334e-06 7.12005e-08 4.03432e-29 1.45366e-06 3.91657e-27 1.4535e-06)
(1.44337e-06 7.0402e-08 -7.30727e-28 1.4437e-06 -4.47656e-27 1.44354e-06)
(1.43333e-06 6.95705e-08 -1.61726e-28 1.43366e-06 2.29559e-28 1.4335e-06)
(1.42339e-06 6.87253e-08 7.68312e-28 1.42372e-06 -2.04067e-27 1.42356e-06)
(1.41347e-06 6.78602e-08 1.95994e-28 1.4138e-06 -3.99918e-28 1.41364e-06)
(1.40375e-06 6.69948e-08 -1.37032e-28 1.40409e-06 2.50297e-29 1.40392e-06)
(1.39425e-06 6.61318e-08 -8.20143e-30 1.39458e-06 -2.4945e-27 1.39441e-06)
(1.38512e-06 6.52872e-08 -7.31787e-29 1.38544e-06 2.3828e-27 1.38528e-06)
(1.37634e-06 6.44595e-08 6.15361e-29 1.37666e-06 -4.98361e-30 1.3765e-06)
(1.36797e-06 6.36543e-08 3.97359e-30 1.36828e-06 -2.6127e-31 1.36813e-06)
(1.36003e-06 6.28764e-08 -8.3185e-37 1.36032e-06 2.07186e-31 1.36017e-06)
(1.35257e-06 6.21335e-08 -6.12159e-31 1.35285e-06 1.0859e-27 1.35271e-06)
(1.34556e-06 6.14203e-08 3.00557e-29 1.34583e-06 -7.60751e-30 1.3457e-06)
(1.339e-06 6.07377e-08 -5.80059e-28 1.33926e-06 7.06514e-28 1.33913e-06)
(1.33288e-06 6.00872e-08 -7.51624e-28 1.33313e-06 -5.61222e-28 1.33301e-06)
(1.3272e-06 5.9467e-08 -4.38816e-29 1.32743e-06 8.82282e-28 1.32731e-06)
(1.32196e-06 5.88819e-08 2.79027e-28 1.32218e-06 2.20395e-28 1.32207e-06)
(1.31718e-06 5.83321e-08 3.77174e-28 1.31738e-06 2.74255e-28 1.31728e-06)
(1.31283e-06 5.78167e-08 -3.01789e-28 1.31302e-06 -2.80181e-28 1.31293e-06)
(1.30891e-06 5.73358e-08 -1.58428e-29 1.30909e-06 -1.09048e-27 1.309e-06)
(1.3054e-06 5.68883e-08 4.71792e-29 1.30557e-06 1.25578e-28 1.30549e-06)
(1.3023e-06 5.64746e-08 -3.66681e-28 1.30245e-06 -2.82979e-28 1.30237e-06)
(1.29957e-06 5.6091e-08 2.72159e-29 1.29971e-06 -8.07703e-29 1.29964e-06)
(1.29717e-06 5.57345e-08 -4.79156e-30 1.2973e-06 4.03186e-29 1.29723e-06)
(1.29511e-06 5.5408e-08 -1.54041e-28 1.29523e-06 -8.32073e-29 1.29517e-06)
(1.29339e-06 5.51116e-08 -8.35935e-30 1.2935e-06 1.7575e-32 1.29345e-06)
(1.292e-06 5.48423e-08 -1.16093e-30 1.29209e-06 3.10511e-28 1.29205e-06)
(1.29087e-06 5.45957e-08 1.4683e-29 1.29096e-06 3.78611e-29 1.29091e-06)
(1.29006e-06 5.43784e-08 -1.66282e-29 1.29013e-06 -3.78561e-29 1.29009e-06)
(1.28958e-06 5.41911e-08 6.47452e-29 1.28964e-06 7.52816e-29 1.28961e-06)
(1.28939e-06 5.40331e-08 1.09422e-29 1.28945e-06 -1.75906e-30 1.28942e-06)
(1.28957e-06 5.39074e-08 6.25095e-31 1.28961e-06 -1.8839e-28 1.28959e-06)
(1.29003e-06 5.38095e-08 -1.78582e-34 1.29006e-06 1.24892e-29 1.29005e-06)
(1.2908e-06 5.3739e-08 1.67704e-30 1.29082e-06 -1.24913e-29 1.29081e-06)
(1.29186e-06 5.3696e-08 -1.90985e-29 1.29187e-06 -1.26152e-29 1.29187e-06)
(1.29324e-06 5.36826e-08 -1.6738e-30 1.29324e-06 4.84269e-29 1.29324e-06)
(1.29491e-06 5.36973e-08 2.13383e-31 1.2949e-06 3.61805e-30 1.29491e-06)
(1.29685e-06 5.37375e-08 -1.86185e-30 1.29683e-06 -6.07986e-29 1.29684e-06)
(1.29906e-06 5.38043e-08 1.43364e-30 1.29903e-06 -5.87166e-31 1.29905e-06)
(1.30156e-06 5.38995e-08 3.94615e-30 1.30152e-06 1.63273e-29 1.30154e-06)
(1.30432e-06 5.40205e-08 -4.4233e-29 1.30427e-06 -1.06189e-28 1.30429e-06)
(1.30735e-06 5.41683e-08 6.90206e-29 1.30729e-06 1.45892e-28 1.30732e-06)
(1.31065e-06 5.43426e-08 2.28438e-29 1.31058e-06 6.02119e-28 1.31061e-06)
(1.31422e-06 5.45426e-08 -7.11341e-29 1.31413e-06 -8.55897e-29 1.31417e-06)
(1.31805e-06 5.47693e-08 -3.01984e-29 1.31796e-06 -7.167e-29 1.31801e-06)
(1.32217e-06 5.5022e-08 1.31037e-28 1.32206e-06 3.4983e-28 1.32211e-06)
(1.32656e-06 5.53027e-08 3.22919e-29 1.32644e-06 -3.50474e-30 1.3265e-06)
(1.33125e-06 5.56131e-08 -1.56777e-29 1.33113e-06 1.35218e-27 1.33119e-06)
(1.3362e-06 5.59494e-08 1.47962e-30 1.33607e-06 -1.32649e-27 1.33613e-06)
(1.3414e-06 5.63105e-08 5.03674e-30 1.34126e-06 -2.63137e-28 1.34133e-06)
(1.3468e-06 5.66909e-08 -3.31674e-29 1.34665e-06 -1.24281e-27 1.34672e-06)
(1.35238e-06 5.70888e-08 2.21813e-29 1.35222e-06 -1.48153e-27 1.3523e-06)
(1.35817e-06 5.75074e-08 7.83147e-30 1.358e-06 -1.70378e-27 1.35809e-06)
(1.36415e-06 5.79453e-08 -1.57416e-30 1.36398e-06 3.95089e-28 1.36407e-06)
(1.37031e-06 5.84002e-08 -6.84035e-31 1.37013e-06 -1.93714e-28 1.37022e-06)
(1.37662e-06 5.88696e-08 4.55966e-29 1.37643e-06 3.1993e-27 1.37653e-06)
(1.38308e-06 5.9355e-08 -3.22084e-28 1.38288e-06 -2.87373e-28 1.38298e-06)
(1.38969e-06 5.98553e-08 -5.70093e-29 1.38949e-06 -8.29865e-28 1.38959e-06)
(1.39642e-06 6.03691e-08 7.24252e-29 1.39622e-06 3.88435e-28 1.39632e-06)
(1.40328e-06 6.08959e-08 -4.89451e-29 1.40308e-06 -4.03528e-28 1.40318e-06)
(1.41027e-06 6.14351e-08 -1.16673e-29 1.41005e-06 8.69674e-28 1.41016e-06)
(1.41738e-06 6.19869e-08 2.48974e-31 1.41716e-06 -4.38891e-28 1.41727e-06)
(1.42464e-06 6.25529e-08 1.90878e-31 1.42442e-06 6.77618e-31 1.42453e-06)
(1.4321e-06 6.31349e-08 2.44728e-31 1.43187e-06 3.61761e-27 1.43199e-06)
(1.43982e-06 6.37361e-08 9.90175e-29 1.43959e-06 -7.31192e-27 1.43971e-06)
(1.44793e-06 6.43615e-08 -7.099e-28 1.44769e-06 5.76176e-27 1.44781e-06)
(1.45645e-06 6.50122e-08 -9.88945e-29 1.45621e-06 7.45247e-27 1.45633e-06)
(1.46544e-06 6.56915e-08 -1.01358e-28 1.4652e-06 -9.46383e-28 1.46532e-06)
(1.47454e-06 6.63802e-08 8.40848e-28 1.47429e-06 2.62757e-27 1.47441e-06)
(1.48354e-06 6.70731e-08 -7.4898e-28 1.48329e-06 -1.70147e-27 1.48341e-06)
(1.49233e-06 6.77622e-08 6.58488e-28 1.49207e-06 9.36546e-27 1.4922e-06)
(1.50089e-06 6.84488e-08 1.03429e-28 1.50064e-06 8.15589e-27 1.50077e-06)
(1.50919e-06 6.91317e-08 -1.77831e-30 1.50894e-06 -8.16986e-27 1.50907e-06)
(1.51719e-06 6.98092e-08 -1.00446e-28 1.51694e-06 -8.64583e-31 1.51707e-06)
(1.5248e-06 7.04758e-08 6.99078e-28 1.52455e-06 1.27556e-27 1.52467e-06)
(1.53201e-06 7.11313e-08 9.11057e-28 1.53176e-06 2.24046e-27 1.53189e-06)
(1.53868e-06 7.1767e-08 9.47403e-29 1.53843e-06 -7.37088e-27 1.53855e-06)
(1.54475e-06 7.23791e-08 -2.59065e-29 1.54451e-06 -7.82284e-27 1.54463e-06)
(1.55002e-06 7.29541e-08 1.69545e-29 1.54979e-06 5.4494e-29 1.54991e-06)
(1.55446e-06 7.3493e-08 -1.52851e-30 1.55424e-06 -7.51217e-27 1.55435e-06)
(1.55799e-06 7.39854e-08 -9.19925e-29 1.55779e-06 -1.28442e-30 1.55789e-06)
(1.56027e-06 7.44079e-08 8.87451e-28 1.56008e-06 1.82121e-27 1.56017e-06)
(1.56174e-06 7.47942e-08 -1.41923e-29 1.56158e-06 -1.09647e-28 1.56166e-06)
(1.56182e-06 7.50812e-08 8.75648e-28 1.56169e-06 1.62826e-27 1.56175e-06)
(1.56129e-06 7.53628e-08 8.88634e-29 1.56117e-06 2.70563e-29 1.56122e-06)
(1.56059e-06 7.56977e-08 -2.38087e-29 1.56048e-06 3.70708e-29 1.56054e-06)
(2.4859e-06 2.34789e-07 -2.84362e-27 2.48583e-06 -7.63048e-28 2.48584e-06)
(2.47709e-06 2.34396e-07 -1.16922e-28 2.47711e-06 3.66049e-30 2.47712e-06)
(2.47382e-06 2.35141e-07 -1.02232e-27 2.47399e-06 -1.53098e-26 2.47389e-06)
(2.46834e-06 2.35566e-07 -9.04124e-27 2.46872e-06 -8.49634e-27 2.46854e-06)
(2.46296e-06 2.36094e-07 2.88258e-27 2.4635e-06 -5.27992e-27 2.46324e-06)
(2.45625e-06 2.36401e-07 1.71787e-29 2.45701e-06 3.28574e-26 2.45664e-06)
(2.44743e-06 2.36356e-07 -1.44819e-29 2.44837e-06 -3.85129e-29 2.44791e-06)
(2.43759e-06 2.36113e-07 -6.32431e-28 2.43871e-06 3.14583e-30 2.43816e-06)
(2.42653e-06 2.35609e-07 1.44935e-26 2.42782e-06 4.709e-26 2.42719e-06)
(2.41458e-06 2.34883e-07 8.98121e-28 2.41601e-06 5.81359e-28 2.41531e-06)
(2.40208e-06 2.33967e-07 -1.51057e-26 2.40364e-06 1.22916e-26 2.40287e-06)
(2.38947e-06 2.32912e-07 -1.72473e-26 2.39114e-06 -1.13569e-26 2.39031e-06)
(2.37712e-06 2.31749e-07 -5.36876e-29 2.37886e-06 2.43044e-26 2.378e-06)
(2.36565e-06 2.30574e-07 -1.792e-26 2.36746e-06 -1.01903e-26 2.36657e-06)
(2.35527e-06 2.29432e-07 1.89324e-26 2.35714e-06 6.49569e-27 2.35621e-06)
(2.34466e-06 2.28179e-07 -3.57671e-28 2.34656e-06 -2.04654e-26 2.34562e-06)
(2.33405e-06 2.26863e-07 1.1374e-26 2.33597e-06 1.19641e-26 2.33502e-06)
(2.32328e-06 2.25457e-07 2.02919e-27 2.32522e-06 -1.86166e-26 2.32426e-06)
(2.31267e-06 2.24016e-07 -4.06469e-28 2.31459e-06 4.02883e-28 2.31364e-06)
(2.3022e-06 2.22543e-07 1.48985e-26 2.3041e-06 8.41231e-27 2.30316e-06)
(2.29213e-06 2.21083e-07 -1.37846e-26 2.294e-06 -9.35743e-27 2.29307e-06)
(2.28243e-06 2.19629e-07 -4.63262e-28 2.28426e-06 1.24921e-27 2.28335e-06)
(2.27318e-06 2.18203e-07 3.9628e-31 2.27496e-06 -8.82218e-28 2.27408e-06)
(2.2644e-06 2.16809e-07 2.16267e-28 2.26612e-06 8.83489e-28 2.26526e-06)
(2.25619e-06 2.15471e-07 -7.20746e-27 2.25786e-06 -2.17724e-27 2.25703e-06)
(2.24852e-06 2.1418e-07 -8.74501e-29 2.25012e-06 -8.00619e-28 2.24932e-06)
(2.24137e-06 2.12937e-07 -5.63108e-27 2.24289e-06 -5.16596e-27 2.24214e-06)
(2.23476e-06 2.11747e-07 3.04291e-27 2.23621e-06 3.89511e-27 2.23549e-06)
(2.22866e-06 2.1061e-07 -6.74466e-27 2.23003e-06 -3.62265e-27 2.22935e-06)
(2.22312e-06 2.09536e-07 -1.22121e-27 2.22442e-06 -4.92911e-27 2.22377e-06)
(2.21814e-06 2.08529e-07 -1.5657e-27 2.21936e-06 7.91558e-27 2.21875e-06)
(2.21372e-06 2.07588e-07 1.14255e-27 2.21486e-06 -1.50691e-27 2.21429e-06)
(2.20983e-06 2.06716e-07 7.13859e-27 2.2109e-06 2.80112e-27 2.21037e-06)
(2.20648e-06 2.05911e-07 -5.29738e-28 2.20747e-06 1.78348e-28 2.20697e-06)
(2.20363e-06 2.05171e-07 1.35458e-27 2.20454e-06 1.90416e-27 2.20409e-06)
(2.20127e-06 2.04495e-07 4.14917e-28 2.2021e-06 4.07562e-28 2.20169e-06)
(2.19931e-06 2.0387e-07 -1.78454e-28 2.20007e-06 -6.59803e-29 2.19969e-06)
(2.19779e-06 2.03308e-07 3.40021e-28 2.19848e-06 2.55487e-27 2.19813e-06)
(2.19672e-06 2.02807e-07 8.87355e-29 2.19733e-06 3.99909e-27 2.19703e-06)
(2.19606e-06 2.02365e-07 -1.59783e-27 2.1966e-06 -2.80454e-27 2.19633e-06)
(2.19575e-06 2.0197e-07 -2.39095e-28 2.19622e-06 -3.15274e-29 2.19599e-06)
(2.19587e-06 2.01637e-07 1.7393e-28 2.19627e-06 3.17007e-29 2.19607e-06)
(2.19642e-06 2.01373e-07 -2.4176e-28 2.19674e-06 3.34135e-28 2.19658e-06)
(2.19736e-06 2.01173e-07 -5.89246e-29 2.19762e-06 4.37768e-29 2.19749e-06)
(2.19879e-06 2.01047e-07 7.92646e-28 2.19898e-06 5.15924e-28 2.19889e-06)
(2.20063e-06 2.00985e-07 -2.80298e-30 2.20075e-06 5.05589e-30 2.20069e-06)
(2.20287e-06 2.00987e-07 3.34792e-29 2.20293e-06 -1.28855e-27 2.2029e-06)
(2.20553e-06 2.01055e-07 5.46389e-29 2.20552e-06 -1.25504e-28 2.20553e-06)
(2.20863e-06 2.01194e-07 -1.71408e-28 2.20855e-06 -1.53623e-28 2.20859e-06)
(2.21203e-06 2.01377e-07 -3.46818e-29 2.21189e-06 -4.14821e-30 2.21196e-06)
(2.21579e-06 2.01618e-07 2.00814e-28 2.21557e-06 1.94654e-28 2.21568e-06)
(2.2199e-06 2.01919e-07 1.65979e-29 2.21962e-06 -1.31548e-28 2.21976e-06)
(2.22439e-06 2.02282e-07 -6.52559e-29 2.22405e-06 1.05273e-28 2.22422e-06)
(2.22924e-06 2.02703e-07 2.77679e-28 2.22883e-06 -3.07867e-28 2.22903e-06)
(2.23442e-06 2.0318e-07 -1.74387e-28 2.23395e-06 8.44587e-28 2.23419e-06)
(2.23996e-06 2.03713e-07 -1.72625e-27 2.23942e-06 -1.90786e-27 2.23969e-06)
(2.24584e-06 2.043e-07 2.28003e-29 2.24524e-06 -3.90607e-28 2.24554e-06)
(2.25205e-06 2.04942e-07 2.68615e-28 2.25139e-06 -1.02571e-28 2.25172e-06)
(2.25859e-06 2.05635e-07 -6.48972e-28 2.25787e-06 4.62714e-27 2.25823e-06)
(2.26547e-06 2.06384e-07 1.96657e-28 2.26469e-06 4.15265e-27 2.26508e-06)
(2.27271e-06 2.07191e-07 -3.51958e-27 2.27188e-06 -3.3349e-27 2.27229e-06)
(2.28023e-06 2.08045e-07 2.91385e-27 2.27934e-06 3.15667e-27 2.27979e-06)
(2.288e-06 2.08937e-07 5.21817e-28 2.28706e-06 -8.80119e-27 2.28753e-06)
(2.29596e-06 2.09858e-07 2.69934e-27 2.29497e-06 4.15222e-27 2.29547e-06)
(2.30405e-06 2.10796e-07 3.21416e-27 2.30302e-06 4.3346e-27 2.30353e-06)
(2.31229e-06 2.11757e-07 4.04978e-27 2.31122e-06 2.87372e-27 2.31175e-06)
(2.32065e-06 2.12737e-07 -3.76662e-28 2.31954e-06 1.27284e-27 2.32009e-06)
(2.32909e-06 2.13727e-07 9.19746e-28 2.32795e-06 -1.29255e-27 2.32852e-06)
(2.33756e-06 2.14718e-07 -6.82044e-27 2.33638e-06 1.35142e-26 2.33697e-06)
(2.34605e-06 2.15711e-07 -4.49683e-28 2.34483e-06 -2.46114e-26 2.34544e-06)
(2.35453e-06 2.16702e-07 1.57788e-27 2.35329e-06 -1.58561e-27 2.35391e-06)
(2.36295e-06 2.17686e-07 -6.2785e-28 2.36169e-06 2.24913e-27 2.36232e-06)
(2.37132e-06 2.18656e-07 8.09611e-28 2.37004e-06 -3.61473e-27 2.37068e-06)
(2.37961e-06 2.19616e-07 -1.44659e-27 2.37831e-06 2.93805e-27 2.37896e-06)
(2.38783e-06 2.20558e-07 5.53461e-28 2.38651e-06 -2.85993e-27 2.38717e-06)
(2.39602e-06 2.21492e-07 7.87837e-28 2.39468e-06 -2.69285e-27 2.39535e-06)
(2.40424e-06 2.22419e-07 -8.61751e-27 2.40288e-06 -3.46747e-26 2.40356e-06)
(2.41263e-06 2.23352e-07 1.48797e-26 2.41125e-06 4.21224e-26 2.41194e-06)
(2.42136e-06 2.24305e-07 -9.49053e-27 2.41997e-06 -6.96869e-26 2.42067e-06)
(2.43058e-06 2.2529e-07 -1.5981e-26 2.42917e-06 -2.03619e-26 2.42988e-06)
(2.44041e-06 2.26334e-07 6.49728e-28 2.43899e-06 -4.57527e-26 2.4397e-06)
(2.45017e-06 2.27358e-07 -4.17586e-27 2.44874e-06 -3.78247e-26 2.44945e-06)
(2.45944e-06 2.28334e-07 3.70068e-27 2.45801e-06 3.82973e-26 2.45873e-06)
(2.46805e-06 2.29241e-07 -1.59536e-26 2.46663e-06 -1.33066e-26 2.46734e-06)
(2.47599e-06 2.30083e-07 -1.93877e-26 2.47458e-06 2.50923e-26 2.47529e-06)
(2.48321e-06 2.30858e-07 1.49026e-26 2.48181e-06 2.0995e-26 2.48251e-06)
(2.48968e-06 2.31566e-07 1.66914e-27 2.4883e-06 -4.60202e-26 2.48899e-06)
(2.49527e-06 2.32192e-07 -1.38333e-27 2.49391e-06 -3.85221e-26 2.49459e-06)
(2.50002e-06 2.32753e-07 -4.96898e-27 2.49869e-06 6.1042e-27 2.49935e-06)
(2.50373e-06 2.33219e-07 1.39173e-26 2.50245e-06 2.38772e-26 2.50309e-06)
(2.50638e-06 2.33599e-07 1.78739e-26 2.50516e-06 1.93516e-26 2.50576e-06)
(2.50761e-06 2.33842e-07 -3.66526e-29 2.50646e-06 2.29451e-28 2.50703e-06)
(2.50751e-06 2.33972e-07 1.65316e-26 2.50644e-06 6.4729e-26 2.50697e-06)
(2.50615e-06 2.3401e-07 1.54353e-27 2.50518e-06 -2.63543e-28 2.50566e-06)
(2.50299e-06 2.33866e-07 -3.01864e-27 2.50213e-06 7.37953e-27 2.50256e-06)
(2.49918e-06 2.33732e-07 1.83611e-28 2.49845e-06 1.06409e-28 2.49881e-06)
(2.49383e-06 2.33472e-07 -2.74256e-27 2.49325e-06 6.22761e-27 2.49354e-06)
(2.48872e-06 2.33442e-07 -3.24607e-28 2.48823e-06 4.27459e-30 2.48846e-06)
(2.48483e-06 2.33611e-07 1.22046e-28 2.48445e-06 -8.15659e-29 2.48466e-06)
(3.65759e-06 5.04644e-07 4.95492e-27 3.6576e-06 -9.83905e-27 3.65753e-06)
(3.64337e-06 5.03653e-07 -1.87791e-27 3.64389e-06 1.06068e-28 3.64368e-06)
(3.63945e-06 5.05334e-07 5.06124e-26 3.6404e-06 -8.24633e-27 3.6399e-06)
(3.63488e-06 5.07024e-07 2.29808e-26 3.63651e-06 -2.49467e-26 3.63572e-06)
(3.63229e-06 5.09195e-07 5.2423e-27 3.63445e-06 -5.84022e-26 3.63338e-06)
(3.62938e-06 5.11386e-07 -1.05224e-25 3.63217e-06 -6.57971e-26 3.63079e-06)
(3.62404e-06 5.12958e-07 -4.16078e-27 3.62743e-06 -5.03154e-30 3.62575e-06)
(3.61751e-06 5.1419e-07 5.56307e-27 3.62145e-06 -3.60635e-29 3.61949e-06)
(3.60932e-06 5.14918e-07 -1.4475e-25 3.61379e-06 -2.44502e-26 3.61157e-06)
(3.60033e-06 5.15309e-07 -7.00454e-27 3.60527e-06 -6.12405e-26 3.60282e-06)
(3.59098e-06 5.15422e-07 -5.987e-26 3.59634e-06 -8.66441e-26 3.59368e-06)
(3.5818e-06 5.15318e-07 4.15282e-26 3.5875e-06 -3.684e-26 3.58466e-06)
(3.57336e-06 5.15049e-07 -1.05629e-25 3.57932e-06 -9.7415e-26 3.57636e-06)
(3.56658e-06 5.14794e-07 3.73653e-26 3.57274e-06 -3.54752e-26 3.56968e-06)
(3.56206e-06 5.14796e-07 -4.0231e-26 3.56838e-06 -4.09462e-27 3.56524e-06)
(3.55727e-06 5.14589e-07 1.01162e-25 3.56373e-06 3.81115e-26 3.56052e-06)
(3.55241e-06 5.14239e-07 -3.83153e-26 3.55895e-06 5.48633e-26 3.5557e-06)
(3.54725e-06 5.13707e-07 1.0429e-25 3.55382e-06 4.41352e-26 3.55055e-06)
(3.54215e-06 5.13065e-07 -1.37666e-27 3.54869e-06 3.71008e-26 3.54543e-06)
(3.53707e-06 5.12323e-07 -4.44524e-26 3.54355e-06 2.41572e-26 3.54032e-06)
(3.5323e-06 5.11544e-07 4.65971e-26 3.53868e-06 1.04926e-26 3.5355e-06)
(3.52783e-06 5.10725e-07 -4.05511e-27 3.53407e-06 1.45071e-28 3.53096e-06)
(3.5237e-06 5.0989e-07 5.32599e-27 3.52977e-06 -3.12257e-26 3.52674e-06)
(3.51994e-06 5.09047e-07 -5.55686e-27 3.52582e-06 -2.98198e-26 3.52288e-06)
(3.51665e-06 5.0824e-07 1.23091e-26 3.52232e-06 -8.71336e-27 3.51949e-06)
(3.51381e-06 5.0744e-07 5.05829e-27 3.51924e-06 -2.11188e-28 3.51653e-06)
(3.5114e-06 5.06675e-07 2.11934e-26 3.51659e-06 -8.50552e-27 3.514e-06)
(3.50944e-06 5.05939e-07 -4.6503e-26 3.51437e-06 2.09319e-26 3.51191e-06)
(3.50791e-06 5.05239e-07 1.51654e-26 3.51258e-06 -7.34581e-27 3.51025e-06)
(3.50685e-06 5.04574e-07 4.49796e-26 3.51124e-06 8.2551e-27 3.50905e-06)
(3.50627e-06 5.0398e-07 -4.70918e-26 3.51039e-06 -1.59859e-26 3.50833e-06)
(3.50616e-06 5.03432e-07 1.92679e-27 3.51e-06 3.75131e-27 3.50808e-06)
(3.50651e-06 5.02946e-07 -1.65604e-26 3.51008e-06 1.18464e-26 3.50829e-06)
(3.50731e-06 5.02519e-07 2.34572e-29 3.5106e-06 -2.10647e-27 3.50895e-06)
(3.50854e-06 5.02149e-07 -2.22026e-26 3.51155e-06 -3.33259e-27 3.51005e-06)
(3.51019e-06 5.01842e-07 -1.75895e-27 3.51292e-06 -1.40735e-26 3.51155e-06)
(3.51214e-06 5.01573e-07 5.01517e-28 3.51461e-06 -3.19612e-28 3.51337e-06)
(3.51447e-06 5.01356e-07 -1.88607e-26 3.51667e-06 -6.59431e-27 3.51557e-06)
(3.51716e-06 5.01199e-07 -2.40599e-26 3.51909e-06 -6.70031e-27 3.51813e-06)
(3.52022e-06 5.01103e-07 1.41682e-26 3.52188e-06 5.95054e-29 3.52105e-06)
(3.52354e-06 5.01045e-07 1.10369e-27 3.52494e-06 1.14634e-28 3.52424e-06)
(3.52721e-06 5.01047e-07 -5.68669e-28 3.52836e-06 -1.58545e-28 3.52779e-06)
(3.53127e-06 5.01123e-07 -2.17021e-29 3.53216e-06 -2.46387e-28 3.53171e-06)
(3.53564e-06 5.01263e-07 9.98267e-29 3.53628e-06 -2.0949e-31 3.53596e-06)
(3.54043e-06 5.01487e-07 -1.9505e-27 3.54081e-06 1.91841e-27 3.54062e-06)
(3.54556e-06 5.01785e-07 -3.15745e-28 3.5457e-06 -1.17643e-28 3.54563e-06)
(3.55107e-06 5.02152e-07 5.34248e-27 3.55096e-06 2.56859e-27 3.55101e-06)
(3.55689e-06 5.02582e-07 1.86155e-28 3.55654e-06 1.86031e-28 3.55671e-06)
(3.56281e-06 5.03031e-07 4.82347e-28 3.56222e-06 -2.02752e-27 3.56251e-06)
(3.56898e-06 5.03528e-07 8.35507e-29 3.56814e-06 -8.2514e-29 3.56856e-06)
(3.57542e-06 5.04082e-07 -6.50672e-28 3.57435e-06 5.28398e-28 3.57488e-06)
(3.58213e-06 5.04696e-07 4.11564e-28 3.58082e-06 -1.43602e-28 3.58147e-06)
(3.58914e-06 5.05367e-07 -2.64454e-28 3.5876e-06 -3.55835e-28 3.58837e-06)
(3.59639e-06 5.06097e-07 2.02546e-29 3.59462e-06 1.52067e-27 3.59551e-06)
(3.60388e-06 5.0687e-07 -9.504e-28 3.60189e-06 5.78567e-27 3.60289e-06)
(3.6116e-06 5.07704e-07 5.02369e-27 3.6094e-06 -6.12115e-27 3.6105e-06)
(3.61953e-06 5.08581e-07 -2.11843e-28 3.61711e-06 2.04578e-27 3.61832e-06)
(3.62767e-06 5.09499e-07 5.25483e-28 3.62504e-06 7.22683e-28 3.62635e-06)
(3.63597e-06 5.10459e-07 -8.9165e-27 3.63315e-06 -1.21044e-26 3.63456e-06)
(3.64444e-06 5.11452e-07 -1.1915e-26 3.64143e-06 -7.61253e-27 3.64293e-06)
(3.65308e-06 5.12493e-07 6.59837e-27 3.64989e-06 -1.18442e-26 3.65149e-06)
(3.66181e-06 5.13549e-07 -7.49004e-27 3.65845e-06 1.43796e-26 3.66013e-06)
(3.67055e-06 5.14616e-07 2.19682e-26 3.66702e-06 1.6518e-26 3.66879e-06)
(3.67925e-06 5.15676e-07 -6.94893e-27 3.67557e-06 1.01252e-26 3.67741e-06)
(3.68779e-06 5.1671e-07 -8.18195e-27 3.68397e-06 1.66202e-26 3.68588e-06)
(3.69618e-06 5.17721e-07 -6.11419e-27 3.69224e-06 1.84606e-26 3.69421e-06)
(3.70437e-06 5.18687e-07 -3.15972e-27 3.70031e-06 -4.81608e-26 3.70234e-06)
(3.7123e-06 5.19615e-07 4.19113e-27 3.70814e-06 4.0003e-27 3.71022e-06)
(3.71986e-06 5.20473e-07 -3.63706e-26 3.71562e-06 -6.73271e-26 3.71774e-06)
(3.72703e-06 5.21259e-07 4.50488e-26 3.72271e-06 3.58898e-26 3.72487e-06)
(3.73378e-06 5.21973e-07 5.97459e-27 3.72939e-06 6.98808e-27 3.73159e-06)
(3.74003e-06 5.226e-07 -2.65845e-27 3.73559e-06 1.97141e-27 3.73781e-06)
(3.74575e-06 5.23122e-07 5.17565e-27 3.74126e-06 3.24995e-27 3.74351e-06)
(3.75091e-06 5.23551e-07 -4.89573e-27 3.74638e-06 8.79094e-26 3.74865e-06)
(3.75552e-06 5.2387e-07 4.20873e-27 3.75097e-06 -2.35952e-27 3.75325e-06)
(3.75965e-06 5.24101e-07 -9.95271e-27 3.75507e-06 -6.14411e-28 3.75736e-06)
(3.76339e-06 5.24237e-07 7.52705e-26 3.75878e-06 8.37841e-27 3.76109e-06)
(3.76694e-06 5.24307e-07 -8.47796e-26 3.76231e-06 2.4188e-26 3.76463e-06)
(3.77061e-06 5.24342e-07 1.12948e-25 3.76596e-06 3.46604e-26 3.76829e-06)
(3.77469e-06 5.2437e-07 3.74596e-26 3.77002e-06 -6.71003e-26 3.77235e-06)
(3.77958e-06 5.2452e-07 9.11976e-26 3.7749e-06 1.06929e-25 3.77724e-06)
(3.78416e-06 5.24608e-07 1.07906e-25 3.7795e-06 6.44334e-26 3.78184e-06)
(3.78765e-06 5.2455e-07 -9.23286e-26 3.78303e-06 -8.41986e-26 3.78534e-06)
(3.78979e-06 5.24286e-07 3.25208e-26 3.78522e-06 -8.31659e-26 3.78751e-06)
(3.79058e-06 5.23833e-07 -5.42994e-26 3.78607e-06 -1.65704e-25 3.78833e-06)
(3.79001e-06 5.23193e-07 -4.57092e-26 3.78559e-06 -1.98149e-26 3.7878e-06)
(3.78804e-06 5.22381e-07 8.84323e-26 3.78373e-06 9.4923e-26 3.78589e-06)
(3.78456e-06 5.21368e-07 1.04145e-25 3.78037e-06 1.67209e-25 3.78247e-06)
(3.77974e-06 5.2022e-07 1.1951e-26 3.7757e-06 -1.11744e-25 3.77772e-06)
(3.77332e-06 5.18864e-07 -3.9947e-26 3.76948e-06 6.00306e-26 3.7714e-06)
(3.7654e-06 5.17367e-07 -3.8035e-26 3.76179e-06 1.59301e-25 3.76359e-06)
(3.75544e-06 5.15588e-07 5.49384e-27 3.75209e-06 -9.41719e-26 3.75376e-06)
(3.74372e-06 5.13601e-07 -1.38326e-25 3.74067e-06 -2.34989e-26 3.74219e-06)
(3.73064e-06 5.11543e-07 -7.53742e-27 3.72793e-06 -3.0979e-29 3.72928e-06)