/*--------------------------------*- C++ -*----------------------------------*\
| =========                 |                                                 |
| \\      /  F ield         | OpenFOAM: The Open Source CFD Toolbox           |
|  \\    /   O peration     | Version:  2306                                  |
|   \\  /    A nd           | Website:  www.openfoam.com                      |
|    \\/     M anipulation  |                                                 |
\*---------------------------------------------------------------------------*/
FoamFile
{
    version     2.0;
    format      ascii;
    arch        "LSB;label=32;scalar=64";
    class       volSymmTensorField;
    location    "0";
    object      Rperp;
}
// * * * * * * * * * * * * * * * * * * * * * * * * * * * * * * * * * * * * * //

dimensions      [0 2 -2 0 0 0 0];

internalField   nonuniform List<symmTensor> 
14751
(
(6.73175e-07 2.38273e-11 -6.45371e-15 7.44155e-10 5.01713e-13 2.36996e-07)
(6.73469e-07 3.83959e-11 -6.58505e-15 7.58356e-10 2.33961e-13 2.40232e-07)
(6.73852e-07 5.9944e-11 -6.88666e-15 7.73606e-10 -3.79347e-14 2.43413e-07)
(6.74146e-07 7.24093e-11 -6.34735e-15 7.90809e-10 -3.40673e-13 2.46496e-07)
(6.74776e-07 9.24169e-11 -4.98585e-15 8.1072e-10 -5.76201e-13 2.49566e-07)
(6.76051e-07 1.13279e-10 -4.28212e-15 8.34071e-10 -7.77304e-13 2.52918e-07)
(6.77243e-07 1.32413e-10 -3.7198e-15 8.60265e-10 -9.65358e-13 2.56369e-07)
(6.78414e-07 1.51805e-10 -2.51006e-15 8.84415e-10 -1.12705e-12 2.59866e-07)
(6.79858e-07 1.69518e-10 -1.68495e-15 9.12022e-10 -1.22173e-12 2.63488e-07)
(6.80893e-07 1.85648e-10 -4.22017e-15 9.4031e-10 -1.3256e-12 2.67245e-07)
(6.81178e-07 2.00585e-10 -7.88262e-15 9.6826e-10 -1.63908e-12 2.70739e-07)
(6.81336e-07 2.13981e-10 -9.61133e-15 9.95601e-10 -2.05191e-12 2.74018e-07)
(6.81778e-07 2.25997e-10 -1.05157e-14 1.02054e-09 -2.51791e-12 2.77061e-07)
(6.82941e-07 2.36308e-10 -1.06875e-14 1.04596e-09 -3.02447e-12 2.80017e-07)
(6.84901e-07 2.4426e-10 -9.62054e-15 1.07156e-09 -3.52984e-12 2.82716e-07)
(6.87207e-07 2.50191e-10 -7.34317e-15 1.09697e-09 -3.97938e-12 2.85267e-07)
(6.89508e-07 2.55524e-10 -3.83857e-15 1.12257e-09 -4.31505e-12 2.87891e-07)
(6.9206e-07 2.5985e-10 -1.57591e-15 1.14964e-09 -4.4903e-12 2.90452e-07)
(6.94347e-07 2.62822e-10 -4.69321e-15 1.18195e-09 -4.64636e-12 2.93033e-07)
(6.97151e-07 2.64236e-10 -9.52842e-15 1.21057e-09 -5.0723e-12 2.95636e-07)
(7.0053e-07 2.63892e-10 -1.12861e-14 1.2339e-09 -5.62324e-12 2.98204e-07)
(7.04981e-07 2.63153e-10 -9.93465e-15 1.26111e-09 -6.21421e-12 3.00793e-07)
(7.09609e-07 2.6156e-10 -6.72883e-15 1.28707e-09 -6.68806e-12 3.03264e-07)
(7.1452e-07 2.59272e-10 -3.43904e-15 1.31395e-09 -7.03936e-12 3.05962e-07)
(7.19257e-07 2.56737e-10 9.49645e-16 1.34349e-09 -7.26851e-12 3.08397e-07)
(7.24079e-07 2.52727e-10 1.35774e-15 1.36645e-09 -7.24836e-12 3.09869e-07)
(7.2919e-07 2.48787e-10 -2.53187e-15 1.39071e-09 -7.42818e-12 3.12059e-07)
(7.34552e-07 2.44985e-10 -5.99222e-15 1.42223e-09 -7.75201e-12 3.14442e-07)
(7.38884e-07 2.40384e-10 -5.6183e-15 1.45063e-09 -8.23518e-12 3.16441e-07)
(7.42478e-07 2.36168e-10 7.76764e-15 1.47579e-09 -8.47851e-12 3.18149e-07)
(7.45938e-07 2.31217e-10 2.50126e-14 1.49028e-09 -7.78244e-12 3.19518e-07)
(7.49406e-07 2.25762e-10 2.80958e-14 1.5062e-09 -6.54639e-12 3.20604e-07)
(7.5447e-07 2.21632e-10 1.56769e-14 1.52976e-09 -5.5767e-12 3.21938e-07)
(7.59118e-07 2.19619e-10 2.25664e-15 1.55842e-09 -5.40681e-12 3.23312e-07)
(7.61587e-07 2.16187e-10 3.08337e-15 1.57841e-09 -5.52178e-12 3.239e-07)
(7.63637e-07 2.09114e-10 1.4814e-14 1.58001e-09 -5.1863e-12 3.23535e-07)
(7.66562e-07 1.97664e-10 2.54051e-14 1.57898e-09 -4.29533e-12 3.22661e-07)
(7.68849e-07 1.86309e-10 2.76908e-14 1.58399e-09 -3.10118e-12 3.22106e-07)
(7.71191e-07 1.74239e-10 1.47535e-14 1.58523e-09 -2.02314e-12 3.20905e-07)
(7.74109e-07 1.627e-10 2.69056e-15 1.58677e-09 -1.89091e-12 3.195e-07)
(7.76056e-07 1.55469e-10 3.68908e-15 1.59643e-09 -1.82524e-12 3.18341e-07)
(7.76604e-07 1.47951e-10 7.08799e-15 1.59071e-09 -1.59003e-12 3.168e-07)
(7.77054e-07 1.36345e-10 6.88957e-15 1.58522e-09 -1.21908e-12 3.1449e-07)
(7.77243e-07 1.2356e-10 -3.73662e-16 1.57438e-09 -1.01008e-12 3.11398e-07)
(7.75842e-07 1.0968e-10 -6.37683e-15 1.55385e-09 -1.23234e-12 3.07875e-07)
(7.75108e-07 9.08671e-11 -9.33585e-16 1.52671e-09 -1.4938e-12 3.03446e-07)
(7.74567e-07 7.02755e-11 7.3762e-15 1.49681e-09 -1.27657e-12 2.98995e-07)
(7.72161e-07 5.18847e-11 7.78275e-15 1.47297e-09 -8.63638e-13 2.9422e-07)
(7.69017e-07 3.40878e-11 -4.12809e-16 1.44624e-09 -6.03684e-13 2.89481e-07)
(7.64904e-07 1.42074e-11 -4.72955e-15 1.4174e-09 -8.61163e-13 2.84615e-07)
(7.59964e-07 -7.34293e-12 -5.34977e-15 1.39309e-09 -9.54751e-13 2.79514e-07)
(7.55871e-07 -2.83828e-11 -1.03181e-14 1.36921e-09 -1.26083e-12 2.74446e-07)
(7.50121e-07 -4.79925e-11 -1.11402e-14 1.32822e-09 -1.76137e-12 2.69047e-07)
(7.44022e-07 -6.66709e-11 -5.72688e-15 1.27897e-09 -2.0985e-12 2.6337e-07)
(7.38145e-07 -8.48851e-11 1.5154e-15 1.24218e-09 -2.13496e-12 2.58419e-07)
(7.31325e-07 -1.05344e-10 2.6893e-15 1.20546e-09 -1.86756e-12 2.5336e-07)
(7.25192e-07 -1.27154e-10 4.56233e-15 1.15242e-09 -1.77945e-12 2.47701e-07)
(7.20051e-07 -1.47336e-10 6.08389e-15 1.1089e-09 -1.37501e-12 2.42404e-07)
(7.15581e-07 -1.6445e-10 8.11669e-15 1.06781e-09 -1.18857e-12 2.37738e-07)
(7.1054e-07 -1.78336e-10 1.33647e-14 1.03806e-09 -6.54242e-13 2.33406e-07)
(7.04672e-07 -1.91033e-10 1.42811e-14 9.97383e-10 -5.3087e-14 2.28984e-07)
(6.98408e-07 -2.04916e-10 1.63619e-14 9.60186e-10 5.2921e-13 2.24211e-07)
(6.93298e-07 -2.18227e-10 1.89976e-14 9.31104e-10 1.26081e-12 2.19979e-07)
(6.8922e-07 -2.29868e-10 1.85515e-14 9.05813e-10 2.03495e-12 2.16366e-07)
(6.85368e-07 -2.39785e-10 1.5917e-14 8.67758e-10 2.68107e-12 2.12761e-07)
(6.81899e-07 -2.48246e-10 1.19149e-14 8.34878e-10 3.21512e-12 2.09419e-07)
(6.78437e-07 -2.54617e-10 7.18305e-15 8.12917e-10 3.52703e-12 2.06383e-07)
(6.75646e-07 -2.58293e-10 4.48242e-15 7.8162e-10 3.65378e-12 2.03573e-07)
(6.72609e-07 -2.60238e-10 3.3914e-15 7.65108e-10 3.76734e-12 2.01615e-07)
(6.68552e-07 -2.6171e-10 3.3661e-15 7.40755e-10 3.78364e-12 1.9977e-07)
(6.65251e-07 -2.62738e-10 3.92299e-15 7.19707e-10 3.85002e-12 1.98028e-07)
(6.62871e-07 -2.62864e-10 3.93297e-15 7.05549e-10 3.93344e-12 1.96653e-07)
(6.60919e-07 -2.61225e-10 4.62199e-15 6.94282e-10 4.02923e-12 1.95737e-07)
(6.59217e-07 -2.59134e-10 4.59129e-15 6.8876e-10 4.16509e-12 1.95257e-07)
(6.58666e-07 -2.56866e-10 2.78929e-15 6.71407e-10 4.25859e-12 1.94885e-07)
(6.58164e-07 -2.532e-10 8.12299e-16 6.58261e-10 4.28797e-12 1.94728e-07)
(6.57799e-07 -2.4906e-10 -1.19184e-15 6.4882e-10 4.22792e-12 1.94633e-07)
(6.58233e-07 -2.44112e-10 -2.77488e-15 6.44246e-10 4.09859e-12 1.94915e-07)
(6.59107e-07 -2.38048e-10 -3.3807e-15 6.41311e-10 3.93998e-12 1.95522e-07)
(6.59869e-07 -2.31845e-10 -3.0991e-15 6.38772e-10 3.77932e-12 1.96232e-07)
(6.60459e-07 -2.25481e-10 -2.57022e-15 6.32732e-10 3.64298e-12 1.96893e-07)
(6.61048e-07 -2.1828e-10 -2.11137e-15 6.2753e-10 3.53512e-12 1.97846e-07)
(6.61207e-07 -2.10756e-10 -2.49281e-15 6.23292e-10 3.43847e-12 1.98624e-07)
(6.61794e-07 -2.03606e-10 -2.94739e-15 6.17409e-10 3.28655e-12 1.99508e-07)
(6.62604e-07 -1.95864e-10 -2.04885e-15 6.16882e-10 3.17206e-12 2.00582e-07)
(6.63237e-07 -1.87435e-10 -1.12091e-15 6.14926e-10 3.1159e-12 2.01954e-07)
(6.63953e-07 -1.78382e-10 -1.04652e-15 6.15508e-10 3.08334e-12 2.03471e-07)
(6.65066e-07 -1.69369e-10 -1.827e-15 6.18821e-10 3.03192e-12 2.05173e-07)
(6.66688e-07 -1.59237e-10 -3.05801e-15 6.23626e-10 2.94836e-12 2.07339e-07)
(6.68223e-07 -1.47822e-10 -4.85793e-15 6.30467e-10 2.81524e-12 2.09784e-07)
(6.69534e-07 -1.354e-10 -5.95873e-15 6.3775e-10 2.58836e-12 2.12313e-07)
(6.70538e-07 -1.22186e-10 -5.62835e-15 6.47199e-10 2.36227e-12 2.14775e-07)
(6.71526e-07 -1.08351e-10 -4.88034e-15 6.56966e-10 2.15909e-12 2.17272e-07)
(6.72419e-07 -9.33483e-11 -5.04864e-15 6.66879e-10 2.00023e-12 2.19972e-07)
(6.72859e-07 -7.73131e-11 -6.02427e-15 6.7825e-10 1.78598e-12 2.22574e-07)
(6.73144e-07 -5.99883e-11 -6.39798e-15 6.89405e-10 1.54222e-12 2.25158e-07)
(6.72968e-07 -4.21879e-11 -6.65681e-15 7.0281e-10 1.29685e-12 2.27906e-07)
(6.72833e-07 -2.31407e-11 -6.79165e-15 7.14877e-10 1.02253e-12 2.30737e-07)
(6.72843e-07 -3.50354e-12 -6.48779e-15 7.2753e-10 7.55763e-13 2.33767e-07)
(2.04982e-06 1.89626e-10 -6.24958e-14 2.26165e-09 1.24909e-12 7.2165e-07)
(2.05072e-06 3.64781e-10 -6.35373e-14 2.30334e-09 5.12047e-13 7.31508e-07)
(2.05525e-06 5.01538e-10 -6.64699e-14 2.35005e-09 -2.46548e-13 7.42414e-07)
(2.05953e-06 7.29921e-10 -6.10491e-14 2.40529e-09 -1.22153e-12 7.53046e-07)
(2.06146e-06 9.69873e-10 -4.76238e-14 2.46141e-09 -2.01752e-12 7.62424e-07)
(2.06874e-06 1.06807e-09 -4.10704e-14 2.53646e-09 -2.74431e-12 7.73933e-07)
(2.07577e-06 1.27888e-09 -3.55706e-14 2.61684e-09 -3.45516e-12 7.85776e-07)
(2.08276e-06 1.46652e-09 -2.39243e-14 2.6937e-09 -4.01326e-12 7.97795e-07)
(2.09059e-06 1.64786e-09 -1.60613e-14 2.78062e-09 -4.28335e-12 8.10227e-07)
(2.09719e-06 1.8213e-09 -4.03591e-14 2.87013e-09 -4.63757e-12 8.2312e-07)
(2.10147e-06 1.97914e-09 -7.52936e-14 2.95909e-09 -5.52896e-12 8.35235e-07)
(2.10537e-06 2.12735e-09 -9.17911e-14 3.04461e-09 -6.79145e-12 8.46724e-07)
(2.11014e-06 2.24647e-09 -1.00433e-13 3.12854e-09 -8.06946e-12 8.57509e-07)
(2.11716e-06 2.35493e-09 -1.02094e-13 3.2072e-09 -9.51222e-12 8.68055e-07)
(2.12667e-06 2.43035e-09 -9.21489e-14 3.29484e-09 -1.08767e-11 8.77841e-07)
(2.13727e-06 2.62971e-09 -6.92737e-14 3.37566e-09 -1.21197e-11 8.87187e-07)
(2.14442e-06 2.6769e-09 -3.58884e-14 3.45693e-09 -1.32408e-11 8.95349e-07)
(2.15909e-06 2.59878e-09 -1.54377e-14 3.59351e-09 -1.42269e-11 9.05411e-07)
(2.17485e-06 2.63082e-09 -4.61691e-14 3.77899e-09 -1.50094e-11 9.15934e-07)
(2.19229e-06 2.64972e-09 -9.44178e-14 3.95737e-09 -1.63027e-11 9.26541e-07)
(2.21165e-06 2.77725e-09 -1.11511e-13 4.12055e-09 -1.79326e-11 9.37066e-07)
(2.22564e-06 2.75913e-09 -9.81844e-14 4.21395e-09 -1.95225e-11 9.45152e-07)
(2.24905e-06 2.61328e-09 -6.89587e-14 4.3889e-09 -2.14601e-11 9.55408e-07)
(2.27341e-06 2.71816e-09 -3.4943e-14 4.5775e-09 -2.28817e-11 9.66381e-07)
(2.2885e-06 2.67998e-09 9.45472e-15 4.67777e-09 -2.40872e-11 9.74e-07)
(2.3127e-06 2.50047e-09 1.24763e-14 4.85474e-09 -2.48583e-11 9.81151e-07)
(2.33797e-06 2.59452e-09 -2.63679e-14 5.03723e-09 -2.56303e-11 9.90556e-07)
(2.35503e-06 2.54346e-09 -6.21645e-14 5.15018e-09 -2.68e-11 9.98001e-07)
(2.37802e-06 2.49257e-09 -5.83999e-14 5.35239e-09 -2.81741e-11 1.0068e-06)
(2.38964e-06 2.43521e-09 8.20659e-14 5.44295e-09 -2.84855e-11 1.01215e-06)
(2.41006e-06 2.38208e-09 2.66605e-13 5.60265e-09 -2.68986e-11 1.019e-06)
(2.42146e-06 2.45583e-09 3.00171e-13 5.66195e-09 -2.29119e-11 1.02239e-06)
(2.43769e-06 2.25755e-09 1.67954e-13 5.7494e-09 -1.98732e-11 1.02654e-06)
(2.4621e-06 2.23246e-09 2.59647e-14 5.95911e-09 -1.87366e-11 1.03336e-06)
(2.4702e-06 2.33057e-09 3.57066e-14 6.03052e-09 -1.81276e-11 1.03514e-06)
(2.47702e-06 2.09712e-09 1.59884e-13 6.03756e-09 -1.65023e-11 1.03392e-06)
(2.49596e-06 1.9736e-09 2.75967e-13 6.14185e-09 -1.40122e-11 1.03365e-06)
(2.5036e-06 1.99678e-09 2.99607e-13 6.16063e-09 -1.04038e-11 1.03176e-06)
(2.51129e-06 1.86102e-09 1.58775e-13 6.16466e-09 -7.87875e-12 1.02787e-06)
(2.52072e-06 1.58361e-09 2.85082e-14 6.16813e-09 -8.0436e-12 1.02335e-06)
(2.53685e-06 1.50682e-09 4.14825e-14 6.30798e-09 -7.78526e-12 1.02201e-06)
(2.53883e-06 1.57167e-09 7.92602e-14 6.28649e-09 -6.35917e-12 1.017e-06)
(2.54052e-06 1.44479e-09 7.53123e-14 6.26165e-09 -5.1072e-12 1.00947e-06)
(2.54127e-06 1.30088e-09 -4.41451e-15 6.2152e-09 -4.91904e-12 9.99514e-07)
(2.53706e-06 1.15065e-09 -6.94422e-14 6.13712e-09 -5.34876e-12 9.88258e-07)
(2.53483e-06 9.51677e-10 -9.70043e-15 6.03088e-09 -5.86608e-12 9.74094e-07)
(2.53318e-06 7.34044e-10 8.24026e-14 5.91579e-09 -5.05592e-12 9.5981e-07)
(2.52563e-06 5.38818e-10 8.79295e-14 5.82153e-09 -3.45551e-12 9.4451e-07)
(2.51565e-06 3.49096e-10 -2.75341e-15 5.71232e-09 -2.14501e-12 9.29205e-07)
(2.50264e-06 1.39403e-10 -5.14609e-14 5.60394e-09 -2.34357e-12 9.13587e-07)
(2.48687e-06 -8.70277e-11 -6.03165e-14 5.5024e-09 -2.26621e-12 8.97198e-07)
(2.4737e-06 -3.06732e-10 -1.17556e-13 5.409e-09 -3.5308e-12 8.80987e-07)
(2.45538e-06 -5.118e-10 -1.26106e-13 5.25073e-09 -5.43667e-12 8.63719e-07)
(2.43597e-06 -7.10445e-10 -6.4692e-14 5.06916e-09 -6.18086e-12 8.45652e-07)
(2.41705e-06 -9.02769e-10 1.70836e-14 4.92006e-09 -6.22426e-12 8.29752e-07)
(2.39528e-06 -1.11565e-09 3.06505e-14 4.77671e-09 -5.68712e-12 8.13597e-07)
(2.37575e-06 -1.34204e-09 5.29924e-14 4.58065e-09 -5.40181e-12 7.9564e-07)
(2.35939e-06 -1.55711e-09 7.15212e-14 4.41553e-09 -4.14891e-12 7.78826e-07)
(2.34498e-06 -1.59678e-09 9.55468e-14 4.25825e-09 -3.37175e-12 7.63898e-07)
(2.31951e-06 -1.73981e-09 1.55942e-13 4.06683e-09 -1.60667e-12 7.48211e-07)
(2.30066e-06 -2.01648e-09 1.68277e-13 3.91357e-09 3.79607e-13 7.34105e-07)
(2.28062e-06 -2.16217e-09 1.93739e-13 3.77249e-09 2.23528e-12 7.18942e-07)
(2.26421e-06 -2.16786e-09 2.24972e-13 3.6612e-09 4.57045e-12 7.05498e-07)
(2.24198e-06 -2.28422e-09 2.18831e-13 3.50169e-09 7.0501e-12 6.92246e-07)
(2.22967e-06 -2.53151e-09 1.91213e-13 3.36203e-09 9.67501e-12 6.8083e-07)
(2.21861e-06 -2.49109e-09 1.42831e-13 3.24197e-09 1.18536e-11 6.70259e-07)
(2.19851e-06 -2.55443e-09 8.5867e-14 3.0986e-09 1.32676e-11 6.58929e-07)
(2.18955e-06 -2.7364e-09 5.48655e-14 2.98926e-09 1.42052e-11 6.50083e-07)
(2.17981e-06 -2.63815e-09 4.05211e-14 2.9238e-09 1.46273e-11 6.43924e-07)
(2.15788e-06 -2.65229e-09 3.97797e-14 2.78418e-09 1.46552e-11 6.36422e-07)
(2.14735e-06 -2.66899e-09 4.63739e-14 2.7069e-09 1.48197e-11 6.30975e-07)
(2.13082e-06 -2.67105e-09 4.60974e-14 2.60679e-09 1.49856e-11 6.24975e-07)
(2.12459e-06 -2.66867e-09 5.41658e-14 2.56527e-09 1.51838e-11 6.22137e-07)
(2.1103e-06 -2.52015e-09 5.2277e-14 2.49346e-09 1.52374e-11 6.18967e-07)
(2.09963e-06 -2.62052e-09 3.24036e-14 2.38816e-09 1.55443e-11 6.16127e-07)
(2.09806e-06 -2.59414e-09 9.65522e-15 2.34183e-09 1.56284e-11 6.15669e-07)
(2.08805e-06 -2.43086e-09 -1.39666e-14 2.26406e-09 1.51609e-11 6.13687e-07)
(2.08052e-06 -2.50342e-09 -3.07181e-14 2.19948e-09 1.46946e-11 6.12872e-07)
(2.08323e-06 -2.45446e-09 -3.74733e-14 2.19102e-09 1.41066e-11 6.14799e-07)
(2.07672e-06 -2.26867e-09 -3.4404e-14 2.13437e-09 1.33987e-11 6.15285e-07)
(2.06968e-06 -2.20573e-09 -2.81198e-14 2.06937e-09 1.29052e-11 6.15594e-07)
(2.06266e-06 -2.13121e-09 -2.27925e-14 2.0062e-09 1.25032e-11 6.16794e-07)
(2.05632e-06 -2.05273e-09 -2.64649e-14 1.96217e-09 1.19798e-11 6.17719e-07)
(2.05484e-06 -1.97656e-09 -3.11274e-14 1.94047e-09 1.14989e-11 6.19469e-07)
(2.05404e-06 -1.90431e-09 -2.15254e-14 1.93385e-09 1.10523e-11 6.21799e-07)
(2.05269e-06 -1.94956e-09 -1.1173e-14 1.92497e-09 1.08027e-11 6.25045e-07)
(2.0549e-06 -1.87185e-09 -1.03127e-14 1.92499e-09 1.0555e-11 6.29738e-07)
(2.05502e-06 -1.65147e-09 -1.89516e-14 1.93129e-09 1.01986e-11 6.3398e-07)
(2.05671e-06 -1.55277e-09 -3.15538e-14 1.94162e-09 9.8621e-12 6.39635e-07)
(2.0581e-06 -1.43708e-09 -4.98734e-14 1.95843e-09 9.33563e-12 6.46129e-07)
(2.05879e-06 -1.31335e-09 -6.08788e-14 1.97611e-09 8.51818e-12 6.52858e-07)
(2.05853e-06 -1.17666e-09 -5.71467e-14 2.00037e-09 7.60825e-12 6.59357e-07)
(2.05821e-06 -1.03104e-09 -4.93041e-14 2.02527e-09 6.79119e-12 6.65934e-07)
(2.05759e-06 -8.72376e-10 -5.06762e-14 2.05071e-09 6.13293e-12 6.73112e-07)
(2.05556e-06 -6.8271e-10 -6.00163e-14 2.07957e-09 5.39105e-12 6.79958e-07)
(2.05308e-06 -5.02641e-10 -6.32664e-14 2.1089e-09 4.53322e-12 6.86729e-07)
(2.04918e-06 -3.91153e-10 -6.53571e-14 2.14337e-09 3.7088e-12 6.93973e-07)
(2.04877e-06 -2.86679e-10 -6.64317e-14 2.17804e-09 2.8798e-12 7.02593e-07)
(2.04881e-06 -3.79554e-11 -6.31548e-14 2.21414e-09 2.03457e-12 7.1182e-07)
(5.67215e-06 9.87935e-10 -6.8508e-13 2.50498e-08 2.89823e-12 1.63356e-06)
(5.67374e-06 2.2355e-09 -6.72691e-13 2.55958e-08 -1.26779e-12 1.65566e-06)
(5.69222e-06 3.45596e-09 -7.59251e-13 2.622e-08 -5.68983e-12 1.6809e-06)
(5.70051e-06 3.77868e-09 -7.63758e-13 2.69054e-08 -1.21138e-11 1.70425e-06)
(5.71987e-06 4.76602e-09 -6.31455e-13 2.76707e-08 -1.88739e-11 1.72948e-06)
(5.74336e-06 5.96073e-09 -5.72975e-13 2.85929e-08 -2.51371e-11 1.75594e-06)
(5.76876e-06 6.66695e-09 -4.96895e-13 2.95642e-08 -3.17671e-11 1.78283e-06)
(5.80467e-06 7.49473e-09 -3.01086e-13 3.06081e-08 -3.70993e-11 1.81245e-06)
(5.8346e-06 8.22625e-09 -1.96955e-13 3.16255e-08 -3.9788e-11 1.8404e-06)
(5.8723e-06 8.69469e-09 -4.83099e-13 3.27259e-08 -4.345e-11 1.87005e-06)
(5.90795e-06 9.99338e-09 -9.03922e-13 3.38729e-08 -4.90238e-11 1.89881e-06)
(5.93514e-06 1.06824e-08 -1.08803e-12 3.49548e-08 -5.70566e-11 1.92409e-06)
(5.97284e-06 1.07245e-08 -1.1763e-12 3.60646e-08 -6.46609e-11 1.94994e-06)
(6.01273e-06 1.16062e-08 -1.18805e-12 3.71308e-08 -7.24811e-11 1.97496e-06)
(6.04879e-06 1.19651e-08 -1.07783e-12 3.8221e-08 -7.92507e-11 1.99609e-06)
(6.09725e-06 1.22567e-08 -9.27202e-13 3.93802e-08 -8.72301e-11 2.01958e-06)
(6.139e-06 1.23971e-08 -6.48304e-13 4.04816e-08 -9.70324e-11 2.04028e-06)
(6.19163e-06 1.25661e-08 -3.76519e-13 4.17686e-08 -1.07118e-10 2.06352e-06)
(6.2362e-06 1.2841e-08 -5.55051e-13 4.2991e-08 -1.14975e-10 2.08375e-06)
(6.2861e-06 1.30489e-08 -1.00925e-12 4.41869e-08 -1.22648e-10 2.10399e-06)
(6.34214e-06 1.29091e-08 -1.22091e-12 4.52681e-08 -1.29844e-10 2.1244e-06)
(6.40287e-06 1.30679e-08 -1.18878e-12 4.63965e-08 -1.38585e-10 2.14443e-06)
(6.45808e-06 1.2914e-08 -9.52762e-13 4.73918e-08 -1.50643e-10 2.16175e-06)
(6.52424e-06 1.27372e-08 -6.82704e-13 4.86215e-08 -1.62744e-10 2.18266e-06)
(6.58427e-06 1.24424e-08 -2.5856e-13 4.97577e-08 -1.77259e-10 2.19879e-06)
(6.65114e-06 1.20993e-08 -1.31168e-14 5.08625e-08 -1.87904e-10 2.21354e-06)
(6.71133e-06 1.22881e-08 -3.49331e-13 5.19213e-08 -1.9413e-10 2.22819e-06)
(6.77083e-06 1.19391e-08 -5.76661e-13 5.31309e-08 -2.0273e-10 2.24274e-06)
(6.82826e-06 1.15577e-08 -2.9045e-13 5.42221e-08 -2.03652e-10 2.25562e-06)
(6.88369e-06 1.11821e-08 1.00978e-12 5.52254e-08 -2.00361e-10 2.26821e-06)
(6.93878e-06 1.12663e-08 2.91078e-12 5.59933e-08 -1.93868e-10 2.27888e-06)
(6.9866e-06 1.08497e-08 3.43389e-12 5.66565e-08 -1.78584e-10 2.28499e-06)
(7.04666e-06 1.0568e-08 2.25837e-12 5.75496e-08 -1.61972e-10 2.29451e-06)
(7.09722e-06 1.0721e-08 9.68663e-13 5.84691e-08 -1.44105e-10 2.30034e-06)
(7.1364e-06 1.03873e-08 9.87585e-13 5.90594e-08 -1.25563e-10 2.30229e-06)
(7.17196e-06 9.47146e-09 1.95813e-12 5.92505e-08 -1.06047e-10 2.29997e-06)
(7.21906e-06 8.83318e-09 2.87635e-12 5.93846e-08 -8.7174e-11 2.29708e-06)
(7.25688e-06 9.12837e-09 2.8489e-12 5.95793e-08 -7.13902e-11 2.2913e-06)
(7.28216e-06 8.35899e-09 1.18516e-12 5.95574e-08 -6.60205e-11 2.28068e-06)
(7.31858e-06 7.23961e-09 1.5949e-13 5.95661e-08 -6.93516e-11 2.27137e-06)
(7.35093e-06 6.74489e-09 7.46862e-13 5.97671e-08 -6.68082e-11 2.26187e-06)
(7.37346e-06 6.72609e-09 1.11958e-12 5.9691e-08 -5.81967e-11 2.25082e-06)
(7.38532e-06 6.10471e-09 6.48288e-13 5.93421e-08 -5.51668e-11 2.23122e-06)
(7.40279e-06 5.28873e-09 -1.24442e-13 5.88705e-08 -5.93673e-11 2.21018e-06)
(7.40565e-06 4.95212e-09 -5.1502e-13 5.80732e-08 -5.58367e-11 2.18535e-06)
(7.40516e-06 3.60925e-09 6.12415e-14 5.702e-08 -5.04482e-11 2.1556e-06)
(7.41458e-06 2.58895e-09 1.02837e-12 5.60636e-08 -3.95411e-11 2.12611e-06)
(7.40439e-06 2.01076e-09 1.21598e-12 5.50457e-08 -2.67393e-11 2.09281e-06)
(7.38724e-06 1.00283e-09 3.93771e-13 5.40147e-08 -1.29252e-11 2.05735e-06)
(7.36602e-06 -4.24812e-11 -1.46811e-13 5.30024e-08 -1.87348e-12 2.02276e-06)
(7.33653e-06 -1.12942e-09 -5.76607e-13 5.20296e-08 3.67243e-12 1.98805e-06)
(7.30606e-06 -2.2238e-09 -1.42249e-12 5.10312e-08 -2.82316e-12 1.95414e-06)
(7.27041e-06 -2.80414e-09 -1.25819e-12 4.96264e-08 -1.24987e-11 1.91799e-06)
(7.22193e-06 -3.84373e-09 -4.79152e-13 4.79535e-08 -1.33072e-11 1.8794e-06)
(7.17963e-06 -5.29848e-09 1.14045e-13 4.64997e-08 -1.09988e-11 1.84554e-06)
(7.13632e-06 -5.90138e-09 2.37513e-13 4.51745e-08 -9.18303e-12 1.81275e-06)
(7.08899e-06 -6.95193e-09 5.61879e-13 4.34836e-08 -6.20448e-12 1.77869e-06)
(7.05638e-06 -7.99536e-09 8.01306e-13 4.20268e-08 -6.20615e-12 1.7466e-06)
(7.01496e-06 -8.48323e-09 1.05935e-12 4.06151e-08 -2.95576e-12 1.71556e-06)
(6.97136e-06 -9.2999e-09 1.64574e-12 3.93888e-08 3.87248e-12 1.68718e-06)
(6.92066e-06 -1.04681e-08 1.74429e-12 3.79855e-08 1.25192e-11 1.65771e-06)
(6.87671e-06 -1.11752e-08 1.97534e-12 3.67457e-08 1.99604e-11 1.62907e-06)
(6.82882e-06 -1.14637e-08 2.32156e-12 3.56024e-08 2.91903e-11 1.60158e-06)
(6.78894e-06 -1.16827e-08 2.45291e-12 3.45313e-08 4.21764e-11 1.57845e-06)
(6.74336e-06 -1.22327e-08 2.32621e-12 3.32889e-08 5.90865e-11 1.55402e-06)
(6.70996e-06 -1.30998e-08 1.87905e-12 3.21387e-08 7.50527e-11 1.53342e-06)
(6.67856e-06 -1.30077e-08 1.2775e-12 3.12185e-08 8.88192e-11 1.51513e-06)
(6.63729e-06 -1.32485e-08 7.90443e-13 3.02036e-08 9.92059e-11 1.49761e-06)
(6.60391e-06 -1.35691e-08 5.38669e-13 2.95073e-08 1.04208e-10 1.48636e-06)
(6.55804e-06 -1.3326e-08 4.62746e-13 2.86733e-08 1.06103e-10 1.47491e-06)
(6.514e-06 -1.32831e-08 5.04678e-13 2.78622e-08 1.05719e-10 1.46451e-06)
(6.47589e-06 -1.33371e-08 4.81819e-13 2.72525e-08 1.06625e-10 1.45597e-06)
(6.44192e-06 -1.35166e-08 4.98064e-13 2.67398e-08 1.05976e-10 1.45049e-06)
(6.4119e-06 -1.30577e-08 5.74741e-13 2.63298e-08 1.04985e-10 1.44788e-06)
(6.37907e-06 -1.27596e-08 3.93e-13 2.57324e-08 1.06117e-10 1.44424e-06)
(6.35848e-06 -1.26203e-08 1.01239e-13 2.52751e-08 1.06394e-10 1.44327e-06)
(6.32994e-06 -1.24876e-08 -1.3125e-13 2.48696e-08 1.04931e-10 1.44157e-06)
(6.31291e-06 -1.22183e-08 -3.58651e-13 2.45778e-08 1.03033e-10 1.44377e-06)
(6.28835e-06 -1.15913e-08 -4.35521e-13 2.43526e-08 9.91426e-11 1.44575e-06)
(6.2633e-06 -1.13137e-08 -3.24557e-13 2.41286e-08 9.73549e-11 1.44809e-06)
(6.23782e-06 -1.06356e-08 -2.39695e-13 2.38311e-08 9.65199e-11 1.45015e-06)
(6.20298e-06 -1.02598e-08 -2.63884e-13 2.35175e-08 9.55111e-11 1.45158e-06)
(6.17532e-06 -9.9757e-09 -3.39446e-13 2.32926e-08 9.23954e-11 1.45492e-06)
(6.13937e-06 -9.50358e-09 -3.79322e-13 2.30048e-08 8.93294e-11 1.45727e-06)
(6.11249e-06 -9.02108e-09 -3.2002e-13 2.28323e-08 8.526e-11 1.46219e-06)
(6.0762e-06 -8.57436e-09 -2.3183e-13 2.26741e-08 8.10265e-11 1.4667e-06)
(6.04881e-06 -8.22364e-09 -2.1895e-13 2.25925e-08 7.7243e-11 1.47418e-06)
(6.01494e-06 -7.29599e-09 -2.82499e-13 2.25265e-08 7.27324e-11 1.48127e-06)
(5.98395e-06 -6.70227e-09 -4.19355e-13 2.24971e-08 6.87571e-11 1.49015e-06)
(5.95207e-06 -6.06871e-09 -6.43826e-13 2.25528e-08 6.28829e-11 1.49943e-06)
(5.91754e-06 -5.84167e-09 -8.02969e-13 2.26287e-08 5.63549e-11 1.50943e-06)
(5.88973e-06 -5.10754e-09 -7.87084e-13 2.27943e-08 4.88956e-11 1.52064e-06)
(5.85115e-06 -3.9382e-09 -6.78624e-13 2.29283e-08 4.18453e-11 1.52987e-06)
(5.81164e-06 -3.44113e-09 -6.48282e-13 2.30741e-08 3.55886e-11 1.53987e-06)
(5.77817e-06 -2.68682e-09 -7.32648e-13 2.3275e-08 3.02434e-11 1.55165e-06)
(5.74295e-06 -2.1246e-09 -7.70973e-13 2.3484e-08 2.4352e-11 1.56323e-06)
(5.71511e-06 -1.31354e-09 -7.57736e-13 2.37805e-08 1.89828e-11 1.57831e-06)
(5.69655e-06 -2.81642e-10 -7.51873e-13 2.41549e-08 1.38104e-11 1.59552e-06)
(5.67901e-06 8.89724e-10 -7.2123e-13 2.45384e-08 8.16771e-12 1.61337e-06)
(9.59312e-06 3.8537e-09 -2.36532e-12 6.78561e-08 -1.21127e-11 2.60571e-06)
(9.58339e-06 8.07652e-09 -2.23231e-12 6.95295e-08 -2.13285e-11 2.63881e-06)
(9.60047e-06 1.06527e-08 -2.56665e-12 7.15364e-08 -3.1165e-11 2.67693e-06)
(9.61755e-06 1.05815e-08 -2.79899e-12 7.36287e-08 -4.55594e-11 2.71425e-06)
(9.64559e-06 1.38473e-08 -2.51892e-12 7.61058e-08 -6.42134e-11 2.75419e-06)
(9.68067e-06 1.56841e-08 -2.34339e-12 7.87878e-08 -8.31175e-11 2.79473e-06)
(9.73894e-06 1.78939e-08 -2.07803e-12 8.19776e-08 -1.02264e-10 2.83996e-06)
(9.7941e-06 2.00159e-08 -1.29562e-12 8.50313e-08 -1.19554e-10 2.88354e-06)
(9.86332e-06 2.20052e-08 -8.73897e-13 8.85049e-08 -1.3058e-10 2.93044e-06)
(9.92778e-06 2.36834e-08 -1.73087e-12 9.18365e-08 -1.43644e-10 2.97365e-06)
(1.00014e-05 2.5096e-08 -3.04347e-12 9.52114e-08 -1.58276e-10 3.01655e-06)
(1.00764e-05 2.70265e-08 -3.59714e-12 9.88415e-08 -1.72689e-10 3.05722e-06)
(1.01536e-05 2.80966e-08 -3.75113e-12 1.02322e-07 -1.86674e-10 3.09593e-06)
(1.02347e-05 2.94668e-08 -3.70232e-12 1.05873e-07 -1.95323e-10 3.13289e-06)
(1.03217e-05 3.04465e-08 -3.48724e-12 1.09564e-07 -2.02071e-10 3.16829e-06)
(1.0406e-05 3.18515e-08 -3.48231e-12 1.13013e-07 -2.15687e-10 3.20116e-06)
(1.04955e-05 3.21935e-08 -3.1152e-12 1.16659e-07 -2.3993e-10 3.2334e-06)
(1.05908e-05 3.22516e-08 -2.40165e-12 1.20599e-07 -2.68404e-10 3.26527e-06)
(1.06898e-05 3.19787e-08 -2.67951e-12 1.24391e-07 -3.02326e-10 3.2969e-06)
(1.07998e-05 3.26379e-08 -3.44189e-12 1.28282e-07 -3.27537e-10 3.32755e-06)
(1.09088e-05 3.29196e-08 -3.90971e-12 1.31554e-07 -3.42437e-10 3.35522e-06)
(1.10293e-05 3.25142e-08 -4.46089e-12 1.3496e-07 -3.63306e-10 3.38303e-06)
(1.1153e-05 3.17348e-08 -4.35987e-12 1.38357e-07 -3.93877e-10 3.41004e-06)
(1.12814e-05 3.18042e-08 -4.01338e-12 1.4208e-07 -4.35319e-10 3.43785e-06)
(1.14064e-05 3.17076e-08 -2.8649e-12 1.45623e-07 -4.83252e-10 3.46035e-06)
(1.15298e-05 3.06982e-08 -1.51139e-12 1.49002e-07 -5.3155e-10 3.47963e-06)
(1.16537e-05 3.03509e-08 -1.89383e-12 1.52529e-07 -5.64438e-10 3.50052e-06)
(1.17691e-05 2.90779e-08 -1.57565e-12 1.55936e-07 -5.84502e-10 3.51681e-06)
(1.18933e-05 2.79017e-08 4.12191e-13 1.591e-07 -5.7728e-10 3.53419e-06)
(1.20118e-05 2.84138e-08 4.05477e-12 1.62019e-07 -5.62483e-10 3.54983e-06)
(1.21219e-05 2.72339e-08 9.20472e-12 1.64216e-07 -5.64771e-10 3.56122e-06)
(1.22433e-05 2.60383e-08 1.15227e-11 1.6661e-07 -5.70734e-10 3.57224e-06)
(1.23571e-05 2.57595e-08 9.62999e-12 1.68828e-07 -5.53824e-10 3.58075e-06)
(1.24714e-05 2.46843e-08 7.30673e-12 1.71209e-07 -5.02501e-10 3.5868e-06)
(1.25796e-05 2.43089e-08 7.55057e-12 1.72908e-07 -4.21436e-10 3.58817e-06)
(1.2672e-05 2.30029e-08 9.71752e-12 1.73517e-07 -3.48281e-10 3.58287e-06)
(1.27729e-05 2.12964e-08 1.10032e-11 1.73806e-07 -2.78781e-10 3.57506e-06)
(1.286e-05 2.02405e-08 8.98567e-12 1.74265e-07 -2.46352e-10 3.56285e-06)
(1.29439e-05 1.92935e-08 3.22961e-12 1.74553e-07 -2.43806e-10 3.54779e-06)
(1.30175e-05 1.7396e-08 4.91339e-13 1.74209e-07 -2.37251e-10 3.5292e-06)
(1.30974e-05 1.56952e-08 2.64843e-12 1.74386e-07 -2.35504e-10 3.51189e-06)
(1.31609e-05 1.49444e-08 3.23622e-12 1.73904e-07 -2.44108e-10 3.48934e-06)
(1.32187e-05 1.31297e-08 9.30334e-13 1.72894e-07 -2.56699e-10 3.45956e-06)
(1.32722e-05 1.09348e-08 -3.26678e-13 1.71022e-07 -2.66749e-10 3.42522e-06)
(1.33186e-05 8.70121e-09 2.25188e-13 1.68679e-07 -2.41413e-10 3.38972e-06)
(1.33577e-05 6.39366e-09 2.61706e-12 1.65938e-07 -1.89673e-10 3.34861e-06)
(1.339e-05 4.67075e-09 5.52638e-12 1.63135e-07 -1.35152e-10 3.30199e-06)
(1.33974e-05 2.66681e-09 6.12672e-12 1.60146e-07 -9.08895e-11 3.2519e-06)
(1.33972e-05 -1.62972e-10 4.34404e-12 1.57148e-07 -3.78663e-11 3.1986e-06)
(1.33923e-05 -2.94298e-09 2.08824e-12 1.5412e-07 2.99968e-11 3.14529e-06)
(1.33735e-05 -5.81069e-09 -1.18831e-12 1.51306e-07 6.48635e-11 3.09443e-06)
(1.33463e-05 -8.73954e-09 -4.8771e-12 1.48077e-07 6.45036e-11 3.04539e-06)
(1.3315e-05 -1.05887e-08 -4.06478e-12 1.44299e-07 6.07633e-11 2.99397e-06)
(1.32668e-05 -1.24635e-08 -9.07836e-13 1.39912e-07 6.53579e-11 2.94131e-06)
(1.3212e-05 -1.53652e-08 9.90927e-13 1.35693e-07 8.23256e-11 2.89195e-06)
(1.31537e-05 -1.81096e-08 1.35387e-12 1.31606e-07 9.63148e-11 2.84344e-06)
(1.30984e-05 -2.06773e-08 1.37652e-12 1.27369e-07 1.06825e-10 2.79905e-06)
(1.30469e-05 -2.33449e-08 1.75716e-12 1.23329e-07 7.38405e-11 2.75403e-06)
(1.29955e-05 -2.50049e-08 3.46032e-12 1.19579e-07 6.30263e-11 2.71353e-06)
(1.29309e-05 -2.7176e-08 5.5711e-12 1.15951e-07 6.26593e-11 2.67365e-06)
(1.28677e-05 -2.88764e-08 5.97038e-12 1.12262e-07 7.07671e-11 2.63554e-06)
(1.27879e-05 -2.99649e-08 6.66213e-12 1.08836e-07 8.0806e-11 2.5954e-06)
(1.271e-05 -3.13384e-08 8.36368e-12 1.05515e-07 9.22394e-11 2.55896e-06)
(1.26263e-05 -3.29904e-08 9.77695e-12 1.02073e-07 1.21465e-10 2.52595e-06)
(1.25605e-05 -3.41077e-08 9.81852e-12 9.89356e-08 1.62484e-10 2.49665e-06)
(1.24869e-05 -3.43576e-08 8.45125e-12 9.56882e-08 2.01372e-10 2.46794e-06)
(1.24134e-05 -3.53898e-08 6.56551e-12 9.29466e-08 2.44301e-10 2.44315e-06)
(1.23355e-05 -3.54962e-08 4.32135e-12 9.02557e-08 2.81672e-10 2.42319e-06)
(1.22458e-05 -3.59069e-08 2.63735e-12 8.79796e-08 3.02777e-10 2.40702e-06)
(1.21656e-05 -3.61719e-08 1.83999e-12 8.58e-08 3.11588e-10 2.39536e-06)
(1.20743e-05 -3.50065e-08 1.70431e-12 8.35792e-08 3.09394e-10 2.38332e-06)
(1.1978e-05 -3.5366e-08 1.55302e-12 8.15241e-08 3.05915e-10 2.37266e-06)
(1.18971e-05 -3.51011e-08 1.36814e-12 7.98975e-08 3.00542e-10 2.36848e-06)
(1.18151e-05 -3.4104e-08 1.70262e-12 7.84882e-08 2.91011e-10 2.3657e-06)
(1.17363e-05 -3.39125e-08 1.37987e-12 7.68298e-08 2.83716e-10 2.36434e-06)
(1.16643e-05 -3.25124e-08 3.93519e-13 7.54136e-08 2.79994e-10 2.36386e-06)
(1.15847e-05 -3.12655e-08 -4.64029e-13 7.41049e-08 2.75662e-10 2.36334e-06)
(1.15057e-05 -3.06357e-08 -1.25863e-12 7.3005e-08 2.719e-10 2.36578e-06)
(1.14264e-05 -2.98582e-08 -1.38368e-12 7.20971e-08 2.67801e-10 2.36944e-06)
(1.13466e-05 -2.84628e-08 -8.02901e-13 7.12676e-08 2.66469e-10 2.37326e-06)
(1.12547e-05 -2.70124e-08 -5.51663e-13 7.01307e-08 2.66031e-10 2.37579e-06)
(1.11636e-05 -2.58233e-08 -8.73422e-13 6.91166e-08 2.63076e-10 2.37895e-06)
(1.10721e-05 -2.4066e-08 -1.27836e-12 6.81949e-08 2.55698e-10 2.38316e-06)
(1.0971e-05 -2.2822e-08 -1.55277e-12 6.72002e-08 2.45582e-10 2.38534e-06)
(1.08772e-05 -2.19423e-08 -1.58089e-12 6.64639e-08 2.32788e-10 2.39151e-06)
(1.07733e-05 -1.9925e-08 -1.37538e-12 6.57481e-08 2.16027e-10 2.39736e-06)
(1.06704e-05 -1.89421e-08 -1.35681e-12 6.51373e-08 1.99026e-10 2.40427e-06)
(1.05698e-05 -1.73467e-08 -1.54335e-12 6.46553e-08 1.80669e-10 2.4134e-06)
(1.04755e-05 -1.59423e-08 -2.05387e-12 6.42257e-08 1.63043e-10 2.42338e-06)
(1.03775e-05 -1.42645e-08 -2.80141e-12 6.40865e-08 1.42604e-10 2.43527e-06)